 Entering Gaussian System, Link 0=g09
 Input=estrutura10_D2O.com
 Output=estrutura10_D2O.log
 Initial command:
 /home/scr/programs/g09/l1.exe "/home/scr/diego/Gau-25562.inp" -scrdir="/home/scr/diego/"
 Entering Link 1 = /home/scr/programs/g09/l1.exe PID=     25564.
  
 Copyright (c) 1988,1990,1992,1993,1995,1998,2003,2009,2013,
            Gaussian, Inc.  All Rights Reserved.
  
 This is part of the Gaussian(R) 09 program.  It is based on
 the Gaussian(R) 03 system (copyright 2003, Gaussian, Inc.),
 the Gaussian(R) 98 system (copyright 1998, Gaussian, Inc.),
 the Gaussian(R) 94 system (copyright 1995, Gaussian, Inc.),
 the Gaussian 92(TM) system (copyright 1992, Gaussian, Inc.),
 the Gaussian 90(TM) system (copyright 1990, Gaussian, Inc.),
 the Gaussian 88(TM) system (copyright 1988, Gaussian, Inc.),
 the Gaussian 86(TM) system (copyright 1986, Carnegie Mellon
 University), and the Gaussian 82(TM) system (copyright 1983,
 Carnegie Mellon University). Gaussian is a federally registered
 trademark of Gaussian, Inc.
  
 This software contains proprietary and confidential information,
 including trade secrets, belonging to Gaussian, Inc.
  
 This software is provided under written license and may be
 used, copied, transmitted, or stored only in accord with that
 written license.
  
 The following legend is applicable only to US Government
 contracts under FAR:
  
                    RESTRICTED RIGHTS LEGEND
  
 Use, reproduction and disclosure by the US Government is
 subject to restrictions as set forth in subparagraphs (a)
 and (c) of the Commercial Computer Software - Restricted
 Rights clause in FAR 52.227-19.
  
 Gaussian, Inc.
 340 Quinnipiac St., Bldg. 40, Wallingford CT 06492
  
  
 ---------------------------------------------------------------
 Warning -- This program may not be used in any manner that
 competes with the business of Gaussian, Inc. or will provide
 assistance to any competitor of Gaussian, Inc.  The licensee
 of this program is prohibited from giving any competitor of
 Gaussian, Inc. access to this program.  By using this program,
 the user acknowledges that Gaussian, Inc. is engaged in the
 business of creating and licensing software in the field of
 computational chemistry and represents and warrants to the
 licensee that it is not a competitor of Gaussian, Inc. and that
 it will not use this program in any manner prohibited above.
 ---------------------------------------------------------------
  

 Cite this work as:
 Gaussian 09, Revision D.01,
 M. J. Frisch, G. W. Trucks, H. B. Schlegel, G. E. Scuseria, 
 M. A. Robb, J. R. Cheeseman, G. Scalmani, V. Barone, B. Mennucci, 
 G. A. Petersson, H. Nakatsuji, M. Caricato, X. Li, H. P. Hratchian, 
 A. F. Izmaylov, J. Bloino, G. Zheng, J. L. Sonnenberg, M. Hada, 
 M. Ehara, K. Toyota, R. Fukuda, J. Hasegawa, M. Ishida, T. Nakajima, 
 Y. Honda, O. Kitao, H. Nakai, T. Vreven, J. A. Montgomery, Jr., 
 J. E. Peralta, F. Ogliaro, M. Bearpark, J. J. Heyd, E. Brothers, 
 K. N. Kudin, V. N. Staroverov, T. Keith, R. Kobayashi, J. Normand, 
 K. Raghavachari, A. Rendell, J. C. Burant, S. S. Iyengar, J. Tomasi, 
 M. Cossi, N. Rega, J. M. Millam, M. Klene, J. E. Knox, J. B. Cross, 
 V. Bakken, C. Adamo, J. Jaramillo, R. Gomperts, R. E. Stratmann, 
 O. Yazyev, A. J. Austin, R. Cammi, C. Pomelli, J. W. Ochterski, 
 R. L. Martin, K. Morokuma, V. G. Zakrzewski, G. A. Voth, 
 P. Salvador, J. J. Dannenberg, S. Dapprich, A. D. Daniels, 
 O. Farkas, J. B. Foresman, J. V. Ortiz, J. Cioslowski, 
 and D. J. Fox, Gaussian, Inc., Wallingford CT, 2013.
 
 ******************************************
 Gaussian 09:  EM64L-G09RevD.01 24-Apr-2013
                18-Aug-2021 
 ******************************************
 %mem=15gb
 %nproc=8
 Will use up to    8 processors via shared memory.
 ------------------------------------------------------------
 #b3lyp/gen pseudo=read opt freq=noraman scrf=(solvent=water)
 ------------------------------------------------------------
 1/14=-1,18=20,19=15,26=3,38=1/1,3;
 2/9=110,12=2,17=6,18=5,40=1/2;
 3/5=7,11=2,16=1,17=8,25=1,30=1,70=2201,71=1,72=1,74=-5/1,2,3;
 4//1;
 5/5=2,38=5,53=1/2;
 6/7=2,8=2,9=2,10=2,28=1/1;
 7//1,2,3,16;
 1/14=-1,18=20,19=15,26=3/3(2);
 2/9=110/2;
 99//99;
 2/9=110/2;
 3/5=7,6=1,11=2,16=1,17=8,25=1,30=1,70=2205,71=1,72=1,74=-5,82=7/1,2,3;
 4/5=5,16=3,69=1/1;
 5/5=2,38=5,53=1/2;
 7//1,2,3,16;
 1/14=-1,18=20,19=15,26=3/3(-5);
 2/9=110/2;
 6/7=2,8=2,9=2,10=2,19=2,28=1/1;
 99/9=1/99;
 ------------
 Estrutura 10
 ------------
 Symbolic Z-matrix:
 Charge = -2 Multiplicity = 1
 Pt                    0.        0.        0.18724 
 Cl                    0.        0.        2.64485 
 Br                    1.78075   1.78074   0.17179 
 Br                   -1.78075   1.78074   0.17179 
 Br                    0.        0.       -2.38906 
 Br                   -1.78075  -1.78074   0.17179 
 Br                    1.78075  -1.78074   0.17179 
 

 GradGradGradGradGradGradGradGradGradGradGradGradGradGradGradGradGradGrad
 Berny optimization.
 Initialization pass.
                           ----------------------------
                           !    Initial Parameters    !
                           ! (Angstroms and Degrees)  !
 --------------------------                            --------------------------
 ! Name  Definition              Value          Derivative Info.                !
 --------------------------------------------------------------------------------
 ! R1    R(1,2)                  2.4576         estimate D2E/DX2                !
 ! R2    R(1,3)                  2.5184         estimate D2E/DX2                !
 ! R3    R(1,4)                  2.5184         estimate D2E/DX2                !
 ! R4    R(1,5)                  2.5763         estimate D2E/DX2                !
 ! R5    R(1,6)                  2.5184         estimate D2E/DX2                !
 ! R6    R(1,7)                  2.5184         estimate D2E/DX2                !
 ! A1    A(2,1,3)               90.3516         estimate D2E/DX2                !
 ! A2    A(2,1,4)               90.3516         estimate D2E/DX2                !
 ! A3    A(2,1,6)               90.3516         estimate D2E/DX2                !
 ! A4    A(2,1,7)               90.3516         estimate D2E/DX2                !
 ! A5    A(3,1,4)               89.9981         estimate D2E/DX2                !
 ! A6    A(3,1,5)               89.6484         estimate D2E/DX2                !
 ! A7    A(3,1,7)               89.9976         estimate D2E/DX2                !
 ! A8    A(4,1,5)               89.6484         estimate D2E/DX2                !
 ! A9    A(4,1,6)               89.9976         estimate D2E/DX2                !
 ! A10   A(5,1,6)               89.6484         estimate D2E/DX2                !
 ! A11   A(5,1,7)               89.6484         estimate D2E/DX2                !
 ! A12   A(6,1,7)               89.9981         estimate D2E/DX2                !
 ! A13   L(2,1,5,3,-1)         180.0            estimate D2E/DX2                !
 ! A14   L(3,1,6,2,-1)         180.7033         estimate D2E/DX2                !
 ! A15   L(4,1,7,2,-1)         180.7033         estimate D2E/DX2                !
 ! A16   L(2,1,5,3,-2)         180.0            estimate D2E/DX2                !
 ! A17   L(3,1,6,2,-2)         180.0            estimate D2E/DX2                !
 ! A18   L(4,1,7,2,-2)         180.0            estimate D2E/DX2                !
 ! D1    D(2,1,4,3)             90.3516         estimate D2E/DX2                !
 ! D2    D(2,1,7,3)            -90.3516         estimate D2E/DX2                !
 ! D3    D(2,1,6,4)             90.3516         estimate D2E/DX2                !
 ! D4    D(2,1,7,6)             90.3516         estimate D2E/DX2                !
 ! D5    D(3,1,5,4)            -90.0003         estimate D2E/DX2                !
 ! D6    D(3,1,7,5)            -89.6484         estimate D2E/DX2                !
 ! D7    D(4,1,6,5)             89.6484         estimate D2E/DX2                !
 ! D8    D(5,1,7,6)            -89.6484         estimate D2E/DX2                !
 --------------------------------------------------------------------------------
 Trust Radius=3.00D-01 FncErr=1.00D-07 GrdErr=1.00D-06
 Number of steps in this run=     42 maximum allowed number of steps=    100.
 GradGradGradGradGradGradGradGradGradGradGradGradGradGradGradGradGradGrad

                          Input orientation:                          
 ---------------------------------------------------------------------
 Center     Atomic      Atomic             Coordinates (Angstroms)
 Number     Number       Type             X           Y           Z
 ---------------------------------------------------------------------
      1         78           0        0.000000    0.000000    0.187241
      2         17           0        0.000000    0.000000    2.644851
      3         35           0        1.780745    1.780736    0.171785
      4         35           0       -1.780745    1.780736    0.171785
      5         35           0        0.000000    0.000000   -2.389063
      6         35           0       -1.780745   -1.780736    0.171785
      7         35           0        1.780745   -1.780736    0.171785
 ---------------------------------------------------------------------
                    Distance matrix (angstroms):
                    1          2          3          4          5
     1  Pt   0.000000
     2  Cl   2.457610   0.000000
     3  Br   2.518395   3.529607   0.000000
     4  Br   2.518395   3.529607   3.561490   0.000000
     5  Br   2.576304   5.033914   3.591659   3.591659   0.000000
     6  Br   2.518395   3.529607   5.036695   3.561472   3.591659
     7  Br   2.518395   3.529607   3.561472   5.036695   3.591659
                    6          7
     6  Br   0.000000
     7  Br   3.561490   0.000000
 Stoichiometry    Br5ClPt(2-)
 Framework group  C2V[C2(BrPtCl),X(Br4)]
 Deg. of freedom     5
 Full point group                 C2V     NOp   4
 Largest Abelian subgroup         C2V     NOp   4
 Largest concise Abelian subgroup C2V     NOp   4
                         Standard orientation:                         
 ---------------------------------------------------------------------
 Center     Atomic      Atomic             Coordinates (Angstroms)
 Number     Number       Type             X           Y           Z
 ---------------------------------------------------------------------
      1         78           0        0.000000    0.000000    0.187241
      2         17           0        0.000000    0.000000    2.644851
      3         35           0        1.780745    1.780736    0.171785
      4         35           0       -1.780745    1.780736    0.171785
      5         35           0        0.000000    0.000000   -2.389063
      6         35           0       -1.780745   -1.780736    0.171785
      7         35           0        1.780745   -1.780736    0.171785
 ---------------------------------------------------------------------
 Rotational constants (GHZ):      0.2951698      0.2951681      0.2524341
 General basis read from cards:  (5D, 7F)
 ======================================================================================================
                                       Pseudopotential Parameters
 ======================================================================================================
  Center     Atomic      Valence      Angular      Power
  Number     Number     Electrons     Momentum     of R      Exponent        Coefficient   SO-Coeffient
 ======================================================================================================
    1         78           18
                                      G and up 
                                                     1      728.9394056       -0.16192680    0.00000000
                                                     2      320.6567800    -1320.28738520    0.00000000
                                                     2       52.8680174     -298.31781350    0.00000000
                                                     2       12.0280128      -87.58370650    0.00000000
                                                     2        3.5238913       -8.14932740    0.00000000
                                      S - G
                                                     0      409.4437358        2.73342180    0.00000000
                                                     1      274.5419231       59.70243290    0.00000000
                                                     2      127.5658570      891.45895500    0.00000000
                                                     2       32.9036631      368.44676560    0.00000000
                                                     2        5.0593880      238.02630900    0.00000000
                                                     2        4.1506556     -107.05564540    0.00000000
                                      P - G
                                                     0      466.1728892        1.88785680    0.00000000
                                                     1      120.7888259       76.01386290    0.00000000
                                                     2       36.4118791      343.55111160    0.00000000
                                                     2        5.6985408      119.49117860    0.00000000
                                      D - G
                                                     0      249.5650763        2.93436780    0.00000000
                                                     1      126.6678585       59.33065710    0.00000000
                                                     2       63.1430586      452.44451940    0.00000000
                                                     2       17.9059470      210.47694790    0.00000000
                                                     2        4.2239373       58.62541120    0.00000000
                                      F - G
                                                     0      121.8158799        3.95342530    0.00000000
                                                     1       60.8757030       53.85551820    0.00000000
                                                     2       31.4767147      247.43051330    0.00000000
                                                     2        9.8811751      127.81879760    0.00000000
                                                     2        2.7319874       15.37720460    0.00000000
    2         17
                                   No pseudopotential on this center.
    3         35
                                   No pseudopotential on this center.
    4         35
                                   No pseudopotential on this center.
    5         35
                                   No pseudopotential on this center.
    6         35
                                   No pseudopotential on this center.
    7         35
                                   No pseudopotential on this center.
 ======================================================================================================
 There are    75 symmetry adapted cartesian basis functions of A1  symmetry.
 There are    41 symmetry adapted cartesian basis functions of A2  symmetry.
 There are    51 symmetry adapted cartesian basis functions of B1  symmetry.
 There are    51 symmetry adapted cartesian basis functions of B2  symmetry.
 There are    66 symmetry adapted basis functions of A1  symmetry.
 There are    38 symmetry adapted basis functions of A2  symmetry.
 There are    48 symmetry adapted basis functions of B1  symmetry.
 There are    48 symmetry adapted basis functions of B2  symmetry.
   200 basis functions,   480 primitive gaussians,   218 cartesian basis functions
   106 alpha electrons      106 beta electrons
       nuclear repulsion energy      2851.5843205443 Hartrees.
 NAtoms=    7 NActive=    7 NUniq=    4 SFac= 3.06D+00 NAtFMM=   60 NAOKFM=F Big=F
 Integral buffers will be    131072 words long.
 Raffenetti 2 integral format.
 Two-electron integral symmetry is turned on.
 ------------------------------------------------------------------------------
 Polarizable Continuum Model (PCM)
 =================================
 Model                : PCM (using non-symmetric T matrix).
 Atomic radii         : UFF (Universal Force Field).
 Polarization charges : Total charges.
 Charge compensation  : None.
 Solution method      : On-the-fly selection.
 Cavity type          : Scaled VdW (van der Waals Surface) (Alpha=1.100).
 Cavity algorithm     : GePol (No added spheres)
                        Default sphere list used, NSphG=    7.
                        Lebedev-Laikov grids with approx.  5.0 points / Ang**2.
                        Smoothing algorithm: Karplus/York (Gamma=1.0000).
                        Polarization charges: spherical gaussians, with
                                              point-specific exponents (IZeta= 3).
                        Self-potential: point-specific (ISelfS= 7).
                        Self-field    : sphere-specific E.n sum rule (ISelfD= 2).
 1st derivatives      : Analytical E(r).r(x)/FMM algorithm (CHGder, D1EAlg=3).
                        Cavity 1st derivative terms included.
 Solvent              : Water, Eps=  78.355300 Eps(inf)=   1.777849
 ------------------------------------------------------------------------------
 Spheres list:
 ISph  on   Nord     Re0    Alpha      Xe            Ye            Ze
    1  Pt      1    1.3770  1.100      0.000000      0.000000      0.187241
    2  Cl      2    1.9735  1.100      0.000000      0.000000      2.644851
    3  Br      3    2.0945  1.100      1.780745      1.780736      0.171785
    4  Br      4    2.0945  1.100     -1.780745      1.780736      0.171785
    5  Br      5    2.0945  1.100      0.000000      0.000000     -2.389063
    6  Br      6    2.0945  1.100     -1.780745     -1.780736      0.171785
    7  Br      7    2.0945  1.100      1.780745     -1.780736      0.171785
 ------------------------------------------------------------------------------
 One-electron integrals computed using PRISM.
   4 Symmetry operations used in ECPInt.
 ECPInt:  NShTT=    2926 NPrTT=   17254 LenC2=    2527 LenP2D=    9853.
 LDataN:  DoStor=T MaxTD1= 6 Len=  172
 NBasis=   200 RedAO= T EigKep=  4.16D-03  NBF=    66    38    48    48
 NBsUse=   200 1.00D-06 EigRej= -1.00D+00 NBFU=    66    38    48    48
 Defaulting to unpruned grid for atomic number  78.
 ExpMin= 2.90D-02 ExpMax= 1.13D+05 ExpMxC= 1.70D+04 IAcc=3 IRadAn=         5 AccDes= 0.00D+00
 Harris functional with IExCor=  402 and IRadAn=       5 diagonalized for initial guess.
 HarFok:  IExCor=  402 AccDes= 0.00D+00 IRadAn=         5 IDoV= 1 UseB2=F ITyADJ=14
 ICtDFT=  3500011 ScaDFX=  1.000000  1.000000  1.000000  1.000000
 Defaulting to unpruned grid for atomic number  78.
 Defaulting to unpruned grid for atomic number  78.
 Defaulting to unpruned grid for atomic number  78.
 Defaulting to unpruned grid for atomic number  78.
 Defaulting to unpruned grid for atomic number  78.
 Defaulting to unpruned grid for atomic number  78.
 Defaulting to unpruned grid for atomic number  78.
 Defaulting to unpruned grid for atomic number  78.
 FoFCou: FMM=F IPFlag=           0 FMFlag=      100000 FMFlg1=           0
         NFxFlg=           0 DoJE=T BraDBF=F KetDBF=T FulRan=T
         wScrn=  0.000000 ICntrl=     500 IOpCl=  0 I1Cent=   200000004 NGrid=           0
         NMat0=    1 NMatS0=      1 NMatT0=    0 NMatD0=    1 NMtDS0=    0 NMtDT0=    0
 Petite list used in FoFCou.
 Initial guess orbital symmetries:
       Occupied  (A1) (B2) (B1) (A1) (A2) (A1) (A1) (B2) (B1) (A1)
                 (A2) (B2) (B1) (A1) (A2) (A1) (A2) (B2) (B1) (A1)
                 (B2) (B1) (A2) (B2) (B1) (A1) (A1) (B2) (B1) (A1)
                 (A2) (A1) (A1) (B1) (B2) (B2) (B1) (A2) (A1) (A1)
                 (A2) (B2) (B1) (A1) (B2) (B1) (A2) (A1) (B2) (B1)
                 (A1) (B1) (B2) (A2) (A1) (A1) (A1) (B1) (B2) (A2)
                 (A1) (B1) (B2) (A2) (B1) (B2) (A1) (B1) (B2) (A2)
                 (A1) (B1) (B2) (A2) (A2) (A1) (B1) (B2) (A1) (A1)
                 (B1) (B2) (A1) (A2) (A1) (A1) (A1) (A2) (B1) (B2)
                 (A1) (B1) (B2) (A1) (A2) (B1) (B2) (B1) (B2) (A2)
                 (A1) (B2) (B1) (A1) (B1) (B2)
       Virtual   (A2) (A1) (A1) (B1) (B2) (A1) (B2) (B1) (A1) (A1)
                 (A1) (B1) (B2) (A2) (A1) (B1) (B2) (A1) (A2) (B2)
                 (B1) (A2) (A1) (B1) (B2) (A1) (A2) (A1) (B1) (B2)
                 (A2) (A2) (A2) (B1) (B2) (A1) (A1) (B1) (B2) (B2)
                 (B1) (A1) (A2) (A1) (B1) (B2) (A1) (B1) (B2) (A2)
                 (A1) (A2) (B1) (B2) (A1) (A2) (A1) (B2) (B1) (A1)
                 (A1) (B1) (B2) (B2) (B1) (A1) (A2) (A1) (B1) (B2)
                 (A2) (A1) (B1) (B2) (A1) (A2) (A1) (A2) (A2) (B1)
                 (B2) (B1) (B2) (A2) (A1) (B2) (B1) (A1) (A1) (B2)
                 (B1) (A1) (A2) (A1)
 The electronic state of the initial guess is 1-A1.
 Keep R1 ints in memory in symmetry-blocked form, NReq=252798676.
 Requested convergence on RMS density matrix=1.00D-08 within 128 cycles.
 Requested convergence on MAX density matrix=1.00D-06.
 Requested convergence on             energy=1.00D-06.
 No special actions if energy rises.
 Defaulting to unpruned grid for atomic number  78.
 Defaulting to unpruned grid for atomic number  78.
 Defaulting to unpruned grid for atomic number  78.
 Defaulting to unpruned grid for atomic number  78.
 Defaulting to unpruned grid for atomic number  78.
 Defaulting to unpruned grid for atomic number  78.
 Defaulting to unpruned grid for atomic number  78.
 Defaulting to unpruned grid for atomic number  78.
 Inv3:  Mode=1 IEnd=     8009868.
 Iteration    1 A*A^-1 deviation from unit magnitude is 6.44D-15 for   1011.
 Iteration    1 A*A^-1 deviation from orthogonality  is 3.24D-15 for   1310   1029.
 Iteration    1 A^-1*A deviation from unit magnitude is 6.66D-15 for   1112.
 Iteration    1 A^-1*A deviation from orthogonality  is 2.81D-15 for   1288    427.
 EnCoef did   100 forward-backward iterations
 Error on total polarization charges =  0.01982
 SCF Done:  E(RB3LYP) =  -13449.0943250     A.U. after   14 cycles
            NFock= 14  Conv=0.44D-08     -V/T= 2.0074

 **********************************************************************

            Population analysis using the SCF density.

 **********************************************************************

 Orbital symmetries:
       Occupied  (A1) (A1) (B2) (B1) (A2) (A1) (A1) (B2) (B1) (A1)
                 (A2) (A1) (B2) (B1) (B2) (B1) (A2) (A1) (A1) (A2)
                 (B2) (B1) (A2) (B2) (B1) (A1) (A1) (A1) (B2) (B1)
                 (A1) (A2) (A1) (B2) (B1) (A1) (B2) (B1) (A2) (A1)
                 (B2) (B1) (A1) (A2) (B2) (B1) (A2) (B2) (B1) (A1)
                 (A1) (A1) (B2) (B1) (B1) (B2) (A1) (A2) (A1) (B1)
                 (B2) (A2) (A1) (B1) (B2) (A2) (A2) (A1) (A2) (B1)
                 (B2) (A1) (A2) (B2) (B1) (A1) (B1) (B2) (A1) (A1)
                 (A1) (A1) (A2) (B1) (B2) (A2) (A1) (A1) (A1) (B1)
                 (B2) (A1) (B1) (B2) (B1) (B2) (A2) (A1) (B1) (B2)
                 (B1) (B2) (A1) (B1) (B2) (A2)
       Virtual   (A1) (A2) (B2) (B1) (A1) (A1) (A1) (B2) (B1) (A1)
                 (A1) (B1) (B2) (A2) (A1) (A2) (A1) (B1) (B2) (B1)
                 (B2) (A2) (B2) (B1) (A1) (A2) (A2) (B1) (B2) (A1)
                 (B1) (B2) (A1) (A1) (A2) (A2) (A1) (B1) (B2) (B2)
                 (B1) (A1) (A1) (A2) (B1) (B2) (A1) (B1) (B2) (A1)
                 (A2) (A2) (B1) (B2) (A1) (A2) (A1) (B2) (B1) (A1)
                 (A1) (B1) (B2) (B2) (B1) (A1) (A2) (A1) (A2) (B1)
                 (B2) (A1) (A1) (B1) (B2) (A2) (A1) (A2) (B1) (B2)
                 (A2) (B1) (B2) (A2) (A1) (B2) (B1) (A1) (A1) (B2)
                 (B1) (A1) (A2) (A1)
 The electronic state is 1-A1.
 Alpha  occ. eigenvalues -- -482.75054-482.74682-482.74682-482.74682-482.74679
 Alpha  occ. eigenvalues -- -101.44976 -62.43151 -62.42798 -62.42798 -62.42798
 Alpha  occ. eigenvalues --  -62.42796 -56.26360 -56.26049 -56.26049 -56.25995
 Alpha  occ. eigenvalues --  -56.25995 -56.25994 -56.25993 -56.25700 -56.25700
 Alpha  occ. eigenvalues --  -56.25699 -56.25699 -56.25699 -56.25699 -56.25699
 Alpha  occ. eigenvalues --  -56.25696  -9.40105  -8.64852  -8.64519  -8.64519
 Alpha  occ. eigenvalues --   -8.64517  -8.64517  -7.16916  -7.16092  -7.16092
 Alpha  occ. eigenvalues --   -6.48055  -6.47699  -6.47699  -6.47699  -6.47698
 Alpha  occ. eigenvalues --   -6.46972  -6.46972  -6.46654  -6.46654  -6.46654
 Alpha  occ. eigenvalues --   -6.46654  -6.46651  -6.46651  -6.46651  -6.46650
 Alpha  occ. eigenvalues --   -4.00345  -2.59488  -2.59192  -2.59192  -2.59143
 Alpha  occ. eigenvalues --   -2.59143  -2.59142  -2.59141  -2.58854  -2.58854
 Alpha  occ. eigenvalues --   -2.58854  -2.58854  -2.58852  -2.58851  -2.58851
 Alpha  occ. eigenvalues --   -2.58851  -2.58342  -2.58342  -2.58031  -2.58031
 Alpha  occ. eigenvalues --   -2.58031  -2.58031  -2.58031  -2.58031  -2.58031
 Alpha  occ. eigenvalues --   -2.58031  -2.21371  -2.21371  -2.21348  -0.75147
 Alpha  occ. eigenvalues --   -0.73177  -0.71567  -0.71514  -0.71499  -0.71499
 Alpha  occ. eigenvalues --   -0.38817  -0.38740  -0.38534  -0.37199  -0.37035
 Alpha  occ. eigenvalues --   -0.37035  -0.31172  -0.30946  -0.30946  -0.26136
 Alpha  occ. eigenvalues --   -0.26136  -0.25408  -0.25326  -0.25224  -0.25224
 Alpha  occ. eigenvalues --   -0.25057  -0.25057  -0.24966  -0.23583  -0.23583
 Alpha  occ. eigenvalues --   -0.23137
 Alpha virt. eigenvalues --   -0.11793  -0.11061   0.05600   0.05600   0.05801
 Alpha virt. eigenvalues --    0.06578   0.20274   0.21096   0.21096   0.33345
 Alpha virt. eigenvalues --    0.33491   0.33706   0.33706   0.40376   0.41911
 Alpha virt. eigenvalues --    0.47849   0.48322   0.51397   0.51397   0.53891
 Alpha virt. eigenvalues --    0.53891   0.54202   0.55057   0.55057   0.55210
 Alpha virt. eigenvalues --    0.55655   0.55728   0.55804   0.55804   0.55923
 Alpha virt. eigenvalues --    0.56588   0.56588   0.57055   0.57160   0.57804
 Alpha virt. eigenvalues --    0.58587   0.59338   0.61484   0.61484   0.62220
 Alpha virt. eigenvalues --    0.62220   0.63560   0.66837   0.70092   0.72535
 Alpha virt. eigenvalues --    0.72535   0.73463   0.78304   0.78304   0.81966
 Alpha virt. eigenvalues --    0.82296   0.83820   0.86827   0.86827   0.90843
 Alpha virt. eigenvalues --    0.95988   0.96826   0.97727   0.97727   0.98309
 Alpha virt. eigenvalues --    1.00836   1.06155   1.06155   1.15315   1.15315
 Alpha virt. eigenvalues --    1.19015   1.27180   1.42514   3.42680   3.42820
 Alpha virt. eigenvalues --    3.42820   3.43749   3.44883   3.44931   3.44931
 Alpha virt. eigenvalues --    3.45337   3.46249   3.46786   3.47059   3.47059
 Alpha virt. eigenvalues --    3.47165   3.47720   3.47720   3.48556   3.53300
 Alpha virt. eigenvalues --    3.59862   3.59862   3.65339   3.66969   3.71064
 Alpha virt. eigenvalues --    3.71064   3.78862   3.86359  10.00568
          Condensed to atoms (all electrons):
               1          2          3          4          5          6
     1  Pt  17.391117   0.246945   0.215081   0.215081   0.222914   0.215081
     2  Cl   0.246945  17.072024  -0.013599  -0.013599  -0.001125  -0.013599
     3  Br   0.215081  -0.013599  35.069095  -0.021318  -0.018490  -0.002869
     4  Br   0.215081  -0.013599  -0.021318  35.069095  -0.018490  -0.021319
     5  Br   0.222914  -0.001125  -0.018490  -0.018490  35.041093  -0.018490
     6  Br   0.215081  -0.013599  -0.002869  -0.021319  -0.018490  35.069095
     7  Br   0.215081  -0.013599  -0.021319  -0.002869  -0.018490  -0.021318
               7
     1  Pt   0.215081
     2  Cl  -0.013599
     3  Br  -0.021319
     4  Br  -0.002869
     5  Br  -0.018490
     6  Br  -0.021318
     7  Br  35.069095
 Mulliken charges:
               1
     1  Pt  -0.721302
     2  Cl  -0.263447
     3  Br  -0.206582
     4  Br  -0.206582
     5  Br  -0.188923
     6  Br  -0.206582
     7  Br  -0.206582
 Sum of Mulliken charges =  -2.00000
 Mulliken charges with hydrogens summed into heavy atoms:
               1
     1  Pt  -0.721302
     2  Cl  -0.263447
     3  Br  -0.206582
     4  Br  -0.206582
     5  Br  -0.188923
     6  Br  -0.206582
     7  Br  -0.206582
 Electronic spatial extent (au):  <R**2>=           4676.4871
 Charge=             -2.0000 electrons
 Dipole moment (field-independent basis, Debye):
    X=              0.0000    Y=              0.0000    Z=             -1.9549  Tot=              1.9549
 Quadrupole moment (field-independent basis, Debye-Ang):
   XX=           -157.0760   YY=           -157.0759   ZZ=           -157.5765
   XY=              0.0000   XZ=              0.0000   YZ=              0.0000
 Traceless Quadrupole moment (field-independent basis, Debye-Ang):
   XX=              0.1668   YY=              0.1669   ZZ=             -0.3337
   XY=              0.0000   XZ=              0.0000   YZ=              0.0000
 Octapole moment (field-independent basis, Debye-Ang**2):
  XXX=              0.0000  YYY=              0.0000  ZZZ=            -36.8735  XYY=              0.0000
  XXY=              0.0000  XXZ=            -10.7899  XZZ=              0.0000  YZZ=              0.0000
  YYZ=            -10.7899  XYZ=              0.0000
 Hexadecapole moment (field-independent basis, Debye-Ang**3):
 XXXX=          -1692.9320 YYYY=          -1692.9178 ZZZZ=          -1486.0301 XXXY=              0.0000
 XXXZ=              0.0000 YYYX=              0.0000 YYYZ=              0.0000 ZZZX=              0.0000
 ZZZY=              0.0000 XXYY=           -571.1666 XXZZ=           -521.3404 YYZZ=           -521.3380
 XXYZ=              0.0000 YYXZ=              0.0000 ZZXY=              0.0000
 N-N= 2.851584320544D+03 E-N=-3.787225181441D+04  KE= 1.335093466557D+04
 Symmetry A1   KE= 4.815681553942D+03
 Symmetry A2   KE= 2.615689939181D+03
 Symmetry B1   KE= 2.959781574904D+03
 Symmetry B2   KE= 2.959781597547D+03
   4 Symmetry operations used in ECPInt.
 ECPInt:  NShTT=    2926 NPrTT=   17254 LenC2=    2527 LenP2D=    9853.
 LDataN:  DoStor=T MaxTD1= 7 Len=  274
 D1PCM: PCM CHGder 1st derivatives, ID1Alg=3 FixD1E=F DoIter=F DoCFld=F I1PDM=0.
 Calling FoFJK, ICntrl=      2127 FMM=F ISym2X=1 I1Cent= 0 IOpClX= 0 NMat=1 NMatS=1 NMatT=0.
 Defaulting to unpruned grid for atomic number  78.
 Defaulting to unpruned grid for atomic number  78.
 Defaulting to unpruned grid for atomic number  78.
 Defaulting to unpruned grid for atomic number  78.
 Defaulting to unpruned grid for atomic number  78.
 Defaulting to unpruned grid for atomic number  78.
 Defaulting to unpruned grid for atomic number  78.
 Defaulting to unpruned grid for atomic number  78.
 ***** Axes restored to original set *****
 -------------------------------------------------------------------
 Center     Atomic                   Forces (Hartrees/Bohr)
 Number     Number              X              Y              Z
 -------------------------------------------------------------------
      1       78           0.000000000    0.000000000   -0.000095725
      2       17           0.000000000    0.000000000   -0.005521735
      3       35           0.006463346    0.006463670    0.000733778
      4       35          -0.006463346    0.006463670    0.000733778
      5       35           0.000000000    0.000000000    0.002682347
      6       35          -0.006463346   -0.006463670    0.000733778
      7       35           0.006463346   -0.006463670    0.000733778
 -------------------------------------------------------------------
 Cartesian Forces:  Max     0.006463670 RMS     0.004220488

 GradGradGradGradGradGradGradGradGradGradGradGradGradGradGradGradGradGrad
 Berny optimization.
 FormGI is forming the generalized inverse of G from B-inverse, IUseBI=4.
 Internal  Forces:  Max     0.009136105 RMS     0.003455160
 Search for a local minimum.
 Step number   1 out of a maximum of   42
 All quantities printed in internal units (Hartrees-Bohrs-Radians)
 Mixed Optimization -- RFO/linear search
 Second derivative matrix not updated -- first step.
 ITU=  0
     Eigenvalues ---    0.07124   0.08487   0.09380   0.09781   0.10138
     Eigenvalues ---    0.11713   0.12617   0.13397   0.13784   0.15459
     Eigenvalues ---    0.15459   0.15459   0.15459   0.19389   0.21640
 RFO step:  Lambda=-2.50331016D-03 EMin= 7.12371073D-02
 Linear search not attempted -- first point.
 Iteration  1 RMS(Cart)=  0.02384829 RMS(Int)=  0.00008480
 Iteration  2 RMS(Cart)=  0.00010797 RMS(Int)=  0.00001826
 Iteration  3 RMS(Cart)=  0.00000001 RMS(Int)=  0.00001826
 ClnCor:  largest displacement from symmetrization is 7.20D-04 for atom     7.
 Variable       Old X    -DE/DX   Delta X   Delta X   Delta X     New X
                                 (Linear)    (Quad)   (Total)
    R1        4.64421  -0.00552   0.00000  -0.03934  -0.03934   4.60487
    R2        4.75908   0.00914   0.00000   0.05816   0.05820   4.81728
    R3        4.75908   0.00914   0.00000   0.05816   0.05820   4.81728
    R4        4.86851  -0.00268   0.00000  -0.01965  -0.01965   4.84885
    R5        4.75908   0.00914   0.00000   0.05816   0.05820   4.81728
    R6        4.75908   0.00914   0.00000   0.05816   0.05820   4.81728
    A1        1.57693  -0.00049   0.00000  -0.00707  -0.00712   1.56981
    A2        1.57693  -0.00054   0.00000  -0.00717  -0.00712   1.56981
    A3        1.57693  -0.00069   0.00000  -0.00720  -0.00712   1.56981
    A4        1.57693  -0.00107   0.00000  -0.00731  -0.00712   1.56981
    A5        1.57076   0.00001   0.00000   0.00009   0.00003   1.57080
    A6        1.56466   0.00057   0.00000   0.00714   0.00712   1.57178
    A7        1.57075   0.00001   0.00000   0.00009   0.00004   1.57079
    A8        1.56466   0.00054   0.00000   0.00717   0.00712   1.57178
    A9        1.57075   0.00001   0.00000   0.00009   0.00004   1.57079
   A10        1.56466   0.00061   0.00000   0.00714   0.00712   1.57178
   A11        1.56466   0.00107   0.00000   0.00731   0.00712   1.57178
   A12        1.57076   0.00001   0.00000   0.00009   0.00003   1.57080
   A13        3.14159   0.00008   0.00000   0.00006   0.00000   3.14159
   A14        3.15387  -0.00117   0.00000  -0.01428  -0.01424   3.13962
   A15        3.15387  -0.00161   0.00000  -0.01447  -0.01424   3.13962
   A16        3.14159   0.00000   0.00000   0.00000   0.00000   3.14159
   A17        3.14159   0.00000   0.00000   0.00000   0.00000   3.14159
   A18        3.14159   0.00000   0.00000   0.00000   0.00000   3.14159
    D1        1.57693  -0.00049   0.00000  -0.00707  -0.00712   1.56981
    D2       -1.57693   0.00048   0.00000   0.00707   0.00712  -1.56981
    D3        1.57693  -0.00054   0.00000  -0.00717  -0.00712   1.56981
    D4        1.57693  -0.00069   0.00000  -0.00720  -0.00712   1.56981
    D5       -1.57080   0.00000   0.00000   0.00000   0.00000  -1.57080
    D6       -1.56466  -0.00057   0.00000  -0.00714  -0.00712  -1.57178
    D7        1.56466   0.00054   0.00000   0.00717   0.00712   1.57178
    D8       -1.56466  -0.00061   0.00000  -0.00714  -0.00712  -1.57178
         Item               Value     Threshold  Converged?
 Maximum Force            0.009136     0.000450     NO 
 RMS     Force            0.003455     0.000300     NO 
 Maximum Displacement     0.056112     0.001800     NO 
 RMS     Displacement     0.023854     0.001200     NO 
 Predicted change in Energy=-1.272486D-03
 GradGradGradGradGradGradGradGradGradGradGradGradGradGradGradGradGradGrad

                          Input orientation:                          
 ---------------------------------------------------------------------
 Center     Atomic      Atomic             Coordinates (Angstroms)
 Number     Number       Type             X           Y           Z
 ---------------------------------------------------------------------
      1         78           0        0.000000    0.000000    0.178368
      2         17           0        0.000000    0.000000    2.615158
      3         35           0        1.802553    1.802548    0.180878
      4         35           0       -1.802553    1.802548    0.180878
      5         35           0        0.000000    0.000000   -2.387535
      6         35           0       -1.802553   -1.802548    0.180878
      7         35           0        1.802553   -1.802548    0.180878
 ---------------------------------------------------------------------
                    Distance matrix (angstroms):
                    1          2          3          4          5
     1  Pt   0.000000
     2  Cl   2.436790   0.000000
     3  Br   2.549192   3.524783   0.000000
     4  Br   2.549192   3.524783   3.605106   0.000000
     5  Br   2.565903   5.002693   3.618718   3.618718   0.000000
     6  Br   2.549192   3.524783   5.098382   3.605095   3.618718
     7  Br   2.549192   3.524783   3.605095   5.098382   3.618718
                    6          7
     6  Br   0.000000
     7  Br   3.605106   0.000000
 Stoichiometry    Br5ClPt(2-)
 Framework group  C2V[C2(BrPtCl),X(Br4)]
 Deg. of freedom     5
 Full point group                 C2V     NOp   4
 Largest Abelian subgroup         C2V     NOp   4
 Largest concise Abelian subgroup C2V     NOp   4
                         Standard orientation:                         
 ---------------------------------------------------------------------
 Center     Atomic      Atomic             Coordinates (Angstroms)
 Number     Number       Type             X           Y           Z
 ---------------------------------------------------------------------
      1         78           0        0.000000    0.000000    0.177888
      2         17           0        0.000000    0.000000    2.614678
      3         35           0        1.802553    1.802548    0.180398
      4         35           0       -1.802553    1.802548    0.180398
      5         35           0        0.000000    0.000000   -2.388015
      6         35           0       -1.802553   -1.802548    0.180398
      7         35           0        1.802553   -1.802548    0.180398
 ---------------------------------------------------------------------
 Rotational constants (GHZ):      0.2919272      0.2919261      0.2463624
 Basis read from rwf:  (5D, 7F)
 Pseudo-potential data read from rwf file.
 There are    75 symmetry adapted cartesian basis functions of A1  symmetry.
 There are    41 symmetry adapted cartesian basis functions of A2  symmetry.
 There are    51 symmetry adapted cartesian basis functions of B1  symmetry.
 There are    51 symmetry adapted cartesian basis functions of B2  symmetry.
 There are    66 symmetry adapted basis functions of A1  symmetry.
 There are    38 symmetry adapted basis functions of A2  symmetry.
 There are    48 symmetry adapted basis functions of B1  symmetry.
 There are    48 symmetry adapted basis functions of B2  symmetry.
   200 basis functions,   480 primitive gaussians,   218 cartesian basis functions
   106 alpha electrons      106 beta electrons
       nuclear repulsion energy      2829.8313909750 Hartrees.
 NAtoms=    7 NActive=    7 NUniq=    4 SFac= 3.06D+00 NAtFMM=   60 NAOKFM=F Big=F
 Integral buffers will be    131072 words long.
 Raffenetti 2 integral format.
 Two-electron integral symmetry is turned on.
 ------------------------------------------------------------------------------
 Polarizable Continuum Model (PCM)
 =================================
 Model                : PCM (using non-symmetric T matrix).
 Atomic radii         : UFF (Universal Force Field).
 Polarization charges : Total charges.
 Charge compensation  : None.
 Solution method      : On-the-fly selection.
 Cavity type          : Scaled VdW (van der Waals Surface) (Alpha=1.100).
 Cavity algorithm     : GePol (No added spheres)
                        Default sphere list used, NSphG=    7.
                        Lebedev-Laikov grids with approx.  5.0 points / Ang**2.
                        Smoothing algorithm: Karplus/York (Gamma=1.0000).
                        Polarization charges: spherical gaussians, with
                                              point-specific exponents (IZeta= 3).
                        Self-potential: point-specific (ISelfS= 7).
                        Self-field    : sphere-specific E.n sum rule (ISelfD= 2).
 1st derivatives      : Analytical E(r).r(x)/FMM algorithm (CHGder, D1EAlg=3).
                        Cavity 1st derivative terms included.
 Solvent              : Water, Eps=  78.355300 Eps(inf)=   1.777849
 ------------------------------------------------------------------------------
 Spheres list:
 ISph  on   Nord     Re0    Alpha      Xe            Ye            Ze
    1  Pt      1    1.3770  1.100      0.000000      0.000000      0.177888
    2  Cl      2    1.9735  1.100      0.000000      0.000000      2.614678
    3  Br      3    2.0945  1.100      1.802553      1.802548      0.180398
    4  Br      4    2.0945  1.100     -1.802553      1.802548      0.180398
    5  Br      5    2.0945  1.100      0.000000      0.000000     -2.388015
    6  Br      6    2.0945  1.100     -1.802553     -1.802548      0.180398
    7  Br      7    2.0945  1.100      1.802553     -1.802548      0.180398
 ------------------------------------------------------------------------------
 One-electron integrals computed using PRISM.
   4 Symmetry operations used in ECPInt.
 ECPInt:  NShTT=    2926 NPrTT=   17254 LenC2=    2527 LenP2D=    9809.
 LDataN:  DoStor=T MaxTD1= 6 Len=  172
 NBasis=   200 RedAO= T EigKep=  4.47D-03  NBF=    66    38    48    48
 NBsUse=   200 1.00D-06 EigRej= -1.00D+00 NBFU=    66    38    48    48
 Defaulting to unpruned grid for atomic number  78.
 Initial guess from the checkpoint file:  "/home/scr/diego/Gau-25564.chk"
 B after Tr=     0.000000    0.000000    0.000000
         Rot=    1.000000    0.000000    0.000000    0.000000 Ang=   0.00 deg.
 Initial guess orbital symmetries:
       Occupied  (A1) (A1) (B2) (B1) (A2) (A1) (A1) (B2) (B1) (A1)
                 (A2) (A1) (B2) (B1) (B2) (B1) (A2) (A1) (A1) (A2)
                 (B2) (B1) (A2) (B2) (B1) (A1) (A1) (A1) (B2) (B1)
                 (A1) (A2) (A1) (B2) (B1) (A1) (B2) (B1) (A2) (A1)
                 (B2) (B1) (A1) (A2) (B2) (B1) (A2) (B2) (B1) (A1)
                 (A1) (A1) (B2) (B1) (B1) (B2) (A1) (A2) (A1) (B1)
                 (B2) (A2) (A1) (B1) (B2) (A2) (A2) (A1) (A2) (B1)
                 (B2) (A1) (A2) (B2) (B1) (A1) (B1) (B2) (A1) (A1)
                 (A1) (A1) (A2) (B1) (B2) (A2) (A1) (A1) (A1) (B1)
                 (B2) (A1) (B1) (B2) (B1) (B2) (A2) (A1) (B1) (B2)
                 (B1) (B2) (A1) (B1) (B2) (A2)
       Virtual   (A1) (A1) (A1) (A1) (A1) (A1) (A1) (A1) (A1) (A1)
                 (A1) (A1) (A1) (A1) (A1) (A1) (A1) (A1) (A1) (A1)
                 (A1) (A1) (A1) (A1) (A1) (A1) (A1) (A1) (A1) (A1)
                 (A1) (A2) (A2) (A2) (A2) (A2) (A2) (A2) (A2) (A2)
                 (A2) (A2) (A2) (A2) (A2) (A2) (A2) (A2) (A2) (A2)
                 (B1) (B1) (B1) (B1) (B1) (B1) (B1) (B1) (B1) (B1)
                 (B1) (B1) (B1) (B1) (B1) (B1) (B1) (B1) (B1) (B1)
                 (B1) (B1) (B2) (B2) (B2) (B2) (B2) (B2) (B2) (B2)
                 (B2) (B2) (B2) (B2) (B2) (B2) (B2) (B2) (B2) (B2)
                 (B2) (B2) (B2) (B2)
 ExpMin= 2.90D-02 ExpMax= 1.13D+05 ExpMxC= 1.70D+04 IAcc=3 IRadAn=         5 AccDes= 0.00D+00
 Harris functional with IExCor=  402 and IRadAn=       5 diagonalized for initial guess.
 HarFok:  IExCor=  402 AccDes= 0.00D+00 IRadAn=         5 IDoV= 1 UseB2=F ITyADJ=14
 ICtDFT=  3500011 ScaDFX=  1.000000  1.000000  1.000000  1.000000
 Defaulting to unpruned grid for atomic number  78.
 Defaulting to unpruned grid for atomic number  78.
 Defaulting to unpruned grid for atomic number  78.
 Defaulting to unpruned grid for atomic number  78.
 Defaulting to unpruned grid for atomic number  78.
 Defaulting to unpruned grid for atomic number  78.
 Defaulting to unpruned grid for atomic number  78.
 Defaulting to unpruned grid for atomic number  78.
 FoFCou: FMM=F IPFlag=           0 FMFlag=      100000 FMFlg1=           0
         NFxFlg=           0 DoJE=T BraDBF=F KetDBF=T FulRan=T
         wScrn=  0.000000 ICntrl=     500 IOpCl=  0 I1Cent=   200000004 NGrid=           0
         NMat0=    1 NMatS0=      1 NMatT0=    0 NMatD0=    1 NMtDS0=    0 NMtDT0=    0
 Petite list used in FoFCou.
 Keep R1 ints in memory in symmetry-blocked form, NReq=252798676.
 Requested convergence on RMS density matrix=1.00D-08 within 128 cycles.
 Requested convergence on MAX density matrix=1.00D-06.
 Requested convergence on             energy=1.00D-06.
 No special actions if energy rises.
 Defaulting to unpruned grid for atomic number  78.
 Defaulting to unpruned grid for atomic number  78.
 Defaulting to unpruned grid for atomic number  78.
 Defaulting to unpruned grid for atomic number  78.
 Defaulting to unpruned grid for atomic number  78.
 Defaulting to unpruned grid for atomic number  78.
 Defaulting to unpruned grid for atomic number  78.
 Defaulting to unpruned grid for atomic number  78.
 Inv3:  Mode=1 IEnd=     8009868.
 Iteration    1 A*A^-1 deviation from unit magnitude is 6.44D-15 for    102.
 Iteration    1 A*A^-1 deviation from orthogonality  is 3.98D-15 for   1319    458.
 Iteration    1 A^-1*A deviation from unit magnitude is 6.88D-15 for   1006.
 Iteration    1 A^-1*A deviation from orthogonality  is 1.65D-15 for   1124   1080.
 Error on total polarization charges =  0.01967
 SCF Done:  E(RB3LYP) =  -13449.0959657     A.U. after   10 cycles
            NFock= 10  Conv=0.22D-08     -V/T= 2.0074
   4 Symmetry operations used in ECPInt.
 ECPInt:  NShTT=    2926 NPrTT=   17254 LenC2=    2527 LenP2D=    9809.
 LDataN:  DoStor=T MaxTD1= 7 Len=  274
 D1PCM: PCM CHGder 1st derivatives, ID1Alg=3 FixD1E=F DoIter=F DoCFld=F I1PDM=0.
 Calling FoFJK, ICntrl=      2127 FMM=F ISym2X=1 I1Cent= 0 IOpClX= 0 NMat=1 NMatS=1 NMatT=0.
 Defaulting to unpruned grid for atomic number  78.
 Defaulting to unpruned grid for atomic number  78.
 Defaulting to unpruned grid for atomic number  78.
 Defaulting to unpruned grid for atomic number  78.
 Defaulting to unpruned grid for atomic number  78.
 Defaulting to unpruned grid for atomic number  78.
 Defaulting to unpruned grid for atomic number  78.
 Defaulting to unpruned grid for atomic number  78.
 ***** Axes restored to original set *****
 -------------------------------------------------------------------
 Center     Atomic                   Forces (Hartrees/Bohr)
 Number     Number              X              Y              Z
 -------------------------------------------------------------------
      1       78           0.000000000    0.000000000    0.000284915
      2       17           0.000000000    0.000000000   -0.002291799
      3       35           0.002008138    0.002008364    0.000106718
      4       35          -0.002008138    0.002008364    0.000106718
      5       35           0.000000000    0.000000000    0.001580010
      6       35          -0.002008138   -0.002008364    0.000106718
      7       35           0.002008138   -0.002008364    0.000106718
 -------------------------------------------------------------------
 Cartesian Forces:  Max     0.002291799 RMS     0.001382546

 GradGradGradGradGradGradGradGradGradGradGradGradGradGradGradGradGradGrad
 Berny optimization.
 Using GEDIIS/GDIIS optimizer.
 FormGI is forming the generalized inverse of G from B-inverse, IUseBI=4.
 Internal  Forces:  Max     0.002840199 RMS     0.001120843
 Search for a local minimum.
 Step number   2 out of a maximum of   42
 All quantities printed in internal units (Hartrees-Bohrs-Radians)
 Mixed Optimization -- RFO/linear search
 Update second derivatives using D2CorX and points    1    2
 DE= -1.64D-03 DEPred=-1.27D-03 R= 1.29D+00
 TightC=F SS=  1.41D+00  RLast= 1.29D-01 DXNew= 5.0454D-01 3.8710D-01
 Trust test= 1.29D+00 RLast= 1.29D-01 DXMaxT set to 3.87D-01
 ITU=  1  0
 Use linear search instead of GDIIS.
     Eigenvalues ---    0.07129   0.08489   0.09364   0.09782   0.10138
     Eigenvalues ---    0.10251   0.11716   0.12615   0.13527   0.14269
     Eigenvalues ---    0.15459   0.15459   0.15459   0.19402   0.21640
 RFO step:  Lambda=-2.16376997D-05 EMin= 7.12879813D-02
 Quartic linear search produced a step of  0.49116.
 Iteration  1 RMS(Cart)=  0.01167316 RMS(Int)=  0.00001271
 Iteration  2 RMS(Cart)=  0.00001081 RMS(Int)=  0.00000971
 Iteration  3 RMS(Cart)=  0.00000000 RMS(Int)=  0.00000971
 ClnCor:  largest displacement from symmetrization is 4.80D-04 for atom     7.
 Variable       Old X    -DE/DX   Delta X   Delta X   Delta X     New X
                                 (Linear)    (Quad)   (Total)
    R1        4.60487  -0.00229  -0.01932  -0.00618  -0.02550   4.57936
    R2        4.81728   0.00284   0.02859  -0.00017   0.02839   4.84566
    R3        4.81728   0.00284   0.02859  -0.00017   0.02839   4.84566
    R4        4.84885  -0.00158  -0.00965  -0.00829  -0.01795   4.83091
    R5        4.81728   0.00284   0.02859  -0.00017   0.02839   4.84566
    R6        4.81728   0.00284   0.02859  -0.00017   0.02839   4.84566
    A1        1.56981  -0.00006  -0.00350   0.00182  -0.00164   1.56817
    A2        1.56981  -0.00007  -0.00350   0.00189  -0.00164   1.56817
    A3        1.56981  -0.00009  -0.00350   0.00191  -0.00164   1.56817
    A4        1.56981  -0.00014  -0.00350   0.00198  -0.00164   1.56817
    A5        1.57080   0.00000   0.00002   0.00001   0.00000   1.57079
    A6        1.57178   0.00008   0.00350  -0.00186   0.00164   1.57343
    A7        1.57079   0.00000   0.00002   0.00000  -0.00001   1.57078
    A8        1.57178   0.00007   0.00350  -0.00189   0.00164   1.57343
    A9        1.57079   0.00000   0.00002   0.00000  -0.00001   1.57078
   A10        1.57178   0.00008   0.00350  -0.00186   0.00164   1.57343
   A11        1.57178   0.00014   0.00350  -0.00198   0.00164   1.57343
   A12        1.57080   0.00000   0.00002   0.00000   0.00000   1.57079
   A13        3.14159   0.00001   0.00000  -0.00004   0.00000   3.14159
   A14        3.13962  -0.00016  -0.00700   0.00373  -0.00329   3.13633
   A15        3.13962  -0.00021  -0.00700   0.00386  -0.00329   3.13633
   A16        3.14159   0.00000   0.00000   0.00000   0.00000   3.14159
   A17        3.14159   0.00000   0.00000   0.00001   0.00000   3.14159
   A18        3.14159   0.00000   0.00000  -0.00001   0.00000   3.14159
    D1        1.56981  -0.00006  -0.00350   0.00182  -0.00164   1.56817
    D2       -1.56981   0.00006   0.00350  -0.00182   0.00164  -1.56817
    D3        1.56981  -0.00007  -0.00350   0.00189  -0.00164   1.56817
    D4        1.56981  -0.00009  -0.00350   0.00191  -0.00164   1.56817
    D5       -1.57080   0.00000   0.00000  -0.00001   0.00000  -1.57080
    D6       -1.57178  -0.00008  -0.00350   0.00186  -0.00164  -1.57343
    D7        1.57178   0.00007   0.00350  -0.00189   0.00164   1.57343
    D8       -1.57178  -0.00008  -0.00350   0.00186  -0.00164  -1.57343
         Item               Value     Threshold  Converged?
 Maximum Force            0.002840     0.000450     NO 
 RMS     Force            0.001121     0.000300     NO 
 Maximum Displacement     0.028872     0.001800     NO 
 RMS     Displacement     0.011677     0.001200     NO 
 Predicted change in Energy=-1.960417D-04
 GradGradGradGradGradGradGradGradGradGradGradGradGradGradGradGradGradGrad

                          Input orientation:                          
 ---------------------------------------------------------------------
 Center     Atomic      Atomic             Coordinates (Angstroms)
 Number     Number       Type             X           Y           Z
 ---------------------------------------------------------------------
      1         78           0        0.000000    0.000000    0.176585
      2         17           0        0.000000    0.000000    2.599879
      3         35           0        1.813172    1.813162    0.183326
      4         35           0       -1.813172    1.813162    0.183326
      5         35           0        0.000000    0.000000   -2.379822
      6         35           0       -1.813172   -1.813162    0.183326
      7         35           0        1.813172   -1.813162    0.183326
 ---------------------------------------------------------------------
                    Distance matrix (angstroms):
                    1          2          3          4          5
     1  Pt   0.000000
     2  Cl   2.423294   0.000000
     3  Br   2.564214   3.523475   0.000000
     4  Br   2.564214   3.523475   3.626343   0.000000
     5  Br   2.556406   4.979701   3.625586   3.625586   0.000000
     6  Br   2.564214   3.523475   5.128410   3.626324   3.625586
     7  Br   2.564214   3.523475   3.626324   5.128410   3.625586
                    6          7
     6  Br   0.000000
     7  Br   3.626343   0.000000
 Stoichiometry    Br5ClPt(2-)
 Framework group  C2V[C2(BrPtCl),X(Br4)]
 Deg. of freedom     5
 Full point group                 C2V     NOp   4
 Largest Abelian subgroup         C2V     NOp   4
 Largest concise Abelian subgroup C2V     NOp   4
                         Standard orientation:                         
 ---------------------------------------------------------------------
 Center     Atomic      Atomic             Coordinates (Angstroms)
 Number     Number       Type             X           Y           Z
 ---------------------------------------------------------------------
      1         78           0        0.000000    0.000000    0.175313
      2         17           0        0.000000    0.000000    2.598607
      3         35           0        1.813172    1.813162    0.182054
      4         35           0       -1.813172    1.813162    0.182054
      5         35           0        0.000000    0.000000   -2.381094
      6         35           0       -1.813172   -1.813162    0.182054
      7         35           0        1.813172   -1.813162    0.182054
 ---------------------------------------------------------------------
 Rotational constants (GHZ):      0.2908197      0.2908179      0.2434859
 Basis read from rwf:  (5D, 7F)
 Pseudo-potential data read from rwf file.
 There are    75 symmetry adapted cartesian basis functions of A1  symmetry.
 There are    41 symmetry adapted cartesian basis functions of A2  symmetry.
 There are    51 symmetry adapted cartesian basis functions of B1  symmetry.
 There are    51 symmetry adapted cartesian basis functions of B2  symmetry.
 There are    66 symmetry adapted basis functions of A1  symmetry.
 There are    38 symmetry adapted basis functions of A2  symmetry.
 There are    48 symmetry adapted basis functions of B1  symmetry.
 There are    48 symmetry adapted basis functions of B2  symmetry.
   200 basis functions,   480 primitive gaussians,   218 cartesian basis functions
   106 alpha electrons      106 beta electrons
       nuclear repulsion energy      2820.9853714488 Hartrees.
 NAtoms=    7 NActive=    7 NUniq=    4 SFac= 3.06D+00 NAtFMM=   60 NAOKFM=F Big=F
 Integral buffers will be    131072 words long.
 Raffenetti 2 integral format.
 Two-electron integral symmetry is turned on.
 ------------------------------------------------------------------------------
 Polarizable Continuum Model (PCM)
 =================================
 Model                : PCM (using non-symmetric T matrix).
 Atomic radii         : UFF (Universal Force Field).
 Polarization charges : Total charges.
 Charge compensation  : None.
 Solution method      : On-the-fly selection.
 Cavity type          : Scaled VdW (van der Waals Surface) (Alpha=1.100).
 Cavity algorithm     : GePol (No added spheres)
                        Default sphere list used, NSphG=    7.
                        Lebedev-Laikov grids with approx.  5.0 points / Ang**2.
                        Smoothing algorithm: Karplus/York (Gamma=1.0000).
                        Polarization charges: spherical gaussians, with
                                              point-specific exponents (IZeta= 3).
                        Self-potential: point-specific (ISelfS= 7).
                        Self-field    : sphere-specific E.n sum rule (ISelfD= 2).
 1st derivatives      : Analytical E(r).r(x)/FMM algorithm (CHGder, D1EAlg=3).
                        Cavity 1st derivative terms included.
 Solvent              : Water, Eps=  78.355300 Eps(inf)=   1.777849
 ------------------------------------------------------------------------------
 Spheres list:
 ISph  on   Nord     Re0    Alpha      Xe            Ye            Ze
    1  Pt      1    1.3770  1.100      0.000000      0.000000      0.175313
    2  Cl      2    1.9735  1.100      0.000000      0.000000      2.598607
    3  Br      3    2.0945  1.100      1.813172      1.813162      0.182054
    4  Br      4    2.0945  1.100     -1.813172      1.813162      0.182054
    5  Br      5    2.0945  1.100      0.000000      0.000000     -2.381094
    6  Br      6    2.0945  1.100     -1.813172     -1.813162      0.182054
    7  Br      7    2.0945  1.100      1.813172     -1.813162      0.182054
 ------------------------------------------------------------------------------
 One-electron integrals computed using PRISM.
   4 Symmetry operations used in ECPInt.
 ECPInt:  NShTT=    2926 NPrTT=   17254 LenC2=    2511 LenP2D=    9787.
 LDataN:  DoStor=T MaxTD1= 6 Len=  172
 NBasis=   200 RedAO= T EigKep=  4.64D-03  NBF=    66    38    48    48
 NBsUse=   200 1.00D-06 EigRej= -1.00D+00 NBFU=    66    38    48    48
 Defaulting to unpruned grid for atomic number  78.
 Initial guess from the checkpoint file:  "/home/scr/diego/Gau-25564.chk"
 B after Tr=     0.000000    0.000000    0.000000
         Rot=    1.000000    0.000000    0.000000    0.000000 Ang=   0.00 deg.
 Initial guess orbital symmetries:
       Occupied  (A1) (A1) (B2) (B1) (A2) (A1) (A1) (B2) (B1) (A1)
                 (A2) (A1) (B2) (B1) (A2) (A1) (B2) (B1) (A2) (A1)
                 (B2) (B1) (B2) (B1) (A2) (A1) (A1) (A1) (B2) (B1)
                 (A1) (A2) (A1) (B2) (B1) (A1) (B2) (B1) (A2) (A1)
                 (B2) (B1) (A1) (B2) (B1) (A2) (A2) (B2) (B1) (A1)
                 (A1) (A1) (B1) (B2) (A1) (A2) (B2) (B1) (B1) (B2)
                 (A1) (A2) (A1) (B1) (B2) (A2) (A2) (A1) (A2) (B1)
                 (B2) (A1) (A2) (B2) (B1) (A1) (A1) (B1) (B2) (A1)
                 (A1) (A1) (B1) (B2) (A2) (A1) (A2) (A1) (B1) (B2)
                 (A1) (A1) (B1) (B2) (B1) (B2) (A2) (A1) (B1) (B2)
                 (A1) (B1) (B2) (B1) (B2) (A2)
       Virtual   (A1) (A1) (A1) (A1) (A1) (A1) (A1) (A1) (A1) (A1)
                 (A1) (A1) (A1) (A1) (A1) (A1) (A1) (A1) (A1) (A1)
                 (A1) (A1) (A1) (A1) (A1) (A1) (A1) (A1) (A1) (A1)
                 (A1) (A2) (A2) (A2) (A2) (A2) (A2) (A2) (A2) (A2)
                 (A2) (A2) (A2) (A2) (A2) (A2) (A2) (A2) (A2) (A2)
                 (B1) (B1) (B1) (B1) (B1) (B1) (B1) (B1) (B1) (B1)
                 (B1) (B1) (B1) (B1) (B1) (B1) (B1) (B1) (B1) (B1)
                 (B1) (B1) (B2) (B2) (B2) (B2) (B2) (B2) (B2) (B2)
                 (B2) (B2) (B2) (B2) (B2) (B2) (B2) (B2) (B2) (B2)
                 (B2) (B2) (B2) (B2)
 ExpMin= 2.90D-02 ExpMax= 1.13D+05 ExpMxC= 1.70D+04 IAcc=3 IRadAn=         5 AccDes= 0.00D+00
 Harris functional with IExCor=  402 and IRadAn=       5 diagonalized for initial guess.
 HarFok:  IExCor=  402 AccDes= 0.00D+00 IRadAn=         5 IDoV= 1 UseB2=F ITyADJ=14
 ICtDFT=  3500011 ScaDFX=  1.000000  1.000000  1.000000  1.000000
 Defaulting to unpruned grid for atomic number  78.
 Defaulting to unpruned grid for atomic number  78.
 Defaulting to unpruned grid for atomic number  78.
 Defaulting to unpruned grid for atomic number  78.
 Defaulting to unpruned grid for atomic number  78.
 Defaulting to unpruned grid for atomic number  78.
 Defaulting to unpruned grid for atomic number  78.
 Defaulting to unpruned grid for atomic number  78.
 FoFCou: FMM=F IPFlag=           0 FMFlag=      100000 FMFlg1=           0
         NFxFlg=           0 DoJE=T BraDBF=F KetDBF=T FulRan=T
         wScrn=  0.000000 ICntrl=     500 IOpCl=  0 I1Cent=   200000004 NGrid=           0
         NMat0=    1 NMatS0=      1 NMatT0=    0 NMatD0=    1 NMtDS0=    0 NMtDT0=    0
 Petite list used in FoFCou.
 Keep R1 ints in memory in symmetry-blocked form, NReq=252798676.
 Requested convergence on RMS density matrix=1.00D-08 within 128 cycles.
 Requested convergence on MAX density matrix=1.00D-06.
 Requested convergence on             energy=1.00D-06.
 No special actions if energy rises.
 Defaulting to unpruned grid for atomic number  78.
 Defaulting to unpruned grid for atomic number  78.
 Defaulting to unpruned grid for atomic number  78.
 Defaulting to unpruned grid for atomic number  78.
 Defaulting to unpruned grid for atomic number  78.
 Defaulting to unpruned grid for atomic number  78.
 Defaulting to unpruned grid for atomic number  78.
 Defaulting to unpruned grid for atomic number  78.
 Inv3:  Mode=1 IEnd=     8009868.
 Iteration    1 A*A^-1 deviation from unit magnitude is 6.66D-15 for   1378.
 Iteration    1 A*A^-1 deviation from orthogonality  is 3.49D-15 for   1310   1029.
 Iteration    1 A^-1*A deviation from unit magnitude is 7.22D-15 for      1.
 Iteration    1 A^-1*A deviation from orthogonality  is 1.77D-15 for   1604   1032.
 Error on total polarization charges =  0.01961
 SCF Done:  E(RB3LYP) =  -13449.0961715     A.U. after    9 cycles
            NFock=  9  Conv=0.73D-08     -V/T= 2.0074
   4 Symmetry operations used in ECPInt.
 ECPInt:  NShTT=    2926 NPrTT=   17254 LenC2=    2511 LenP2D=    9787.
 LDataN:  DoStor=T MaxTD1= 7 Len=  274
 D1PCM: PCM CHGder 1st derivatives, ID1Alg=3 FixD1E=F DoIter=F DoCFld=F I1PDM=0.
 Calling FoFJK, ICntrl=      2127 FMM=F ISym2X=1 I1Cent= 0 IOpClX= 0 NMat=1 NMatS=1 NMatT=0.
 Defaulting to unpruned grid for atomic number  78.
 Defaulting to unpruned grid for atomic number  78.
 Defaulting to unpruned grid for atomic number  78.
 Defaulting to unpruned grid for atomic number  78.
 Defaulting to unpruned grid for atomic number  78.
 Defaulting to unpruned grid for atomic number  78.
 Defaulting to unpruned grid for atomic number  78.
 Defaulting to unpruned grid for atomic number  78.
 ***** Axes restored to original set *****
 -------------------------------------------------------------------
 Center     Atomic                   Forces (Hartrees/Bohr)
 Number     Number              X              Y              Z
 -------------------------------------------------------------------
      1       78           0.000000000    0.000000000   -0.000043892
      2       17           0.000000000    0.000000000    0.000068579
      3       35           0.000009479    0.000009911   -0.000047089
      4       35          -0.000009479    0.000009911   -0.000047089
      5       35           0.000000000    0.000000000    0.000163671
      6       35          -0.000009479   -0.000009911   -0.000047089
      7       35           0.000009479   -0.000009911   -0.000047089
 -------------------------------------------------------------------
 Cartesian Forces:  Max     0.000163671 RMS     0.000045271

 GradGradGradGradGradGradGradGradGradGradGradGradGradGradGradGradGradGrad
 Berny optimization.
 Using GEDIIS/GDIIS optimizer.
 FormGI is forming the generalized inverse of G from B-inverse, IUseBI=4.
 Internal  Forces:  Max     0.000163671 RMS     0.000047050
 Search for a local minimum.
 Step number   3 out of a maximum of   42
 All quantities printed in internal units (Hartrees-Bohrs-Radians)
 Mixed Optimization -- En-DIIS/RFO-DIIS
 Update second derivatives using D2CorX and points    1    2    3
 DE= -2.06D-04 DEPred=-1.96D-04 R= 1.05D+00
 TightC=F SS=  1.41D+00  RLast= 6.53D-02 DXNew= 6.5102D-01 1.9576D-01
 Trust test= 1.05D+00 RLast= 6.53D-02 DXMaxT set to 3.87D-01
 ITU=  1  1  0
 Use linear search instead of GDIIS.
     Eigenvalues ---    0.07139   0.08504   0.09378   0.09690   0.09782
     Eigenvalues ---    0.10138   0.11716   0.12615   0.13577   0.14244
     Eigenvalues ---    0.15459   0.15459   0.15459   0.19407   0.21640
 RFO step:  Lambda=-6.41813325D-07 EMin= 7.13899706D-02
 Quartic linear search produced a step of  0.00304.
 Iteration  1 RMS(Cart)=  0.00064651 RMS(Int)=  0.00000018
 Iteration  2 RMS(Cart)=  0.00000017 RMS(Int)=  0.00000007
 ClnCor:  largest displacement from symmetrization is 2.15D-05 for atom     7.
 Variable       Old X    -DE/DX   Delta X   Delta X   Delta X     New X
                                 (Linear)    (Quad)   (Total)
    R1        4.57936   0.00007  -0.00008   0.00053   0.00045   4.57981
    R2        4.84566   0.00001   0.00009   0.00008   0.00016   4.84582
    R3        4.84566   0.00001   0.00009   0.00008   0.00016   4.84582
    R4        4.83091  -0.00016  -0.00005  -0.00119  -0.00125   4.82966
    R5        4.84566   0.00001   0.00009   0.00008   0.00016   4.84582
    R6        4.84566   0.00001   0.00009   0.00008   0.00016   4.84582
    A1        1.56817   0.00003   0.00000   0.00044   0.00044   1.56861
    A2        1.56817   0.00003   0.00000   0.00044   0.00044   1.56861
    A3        1.56817   0.00004   0.00000   0.00045   0.00044   1.56861
    A4        1.56817   0.00007   0.00000   0.00045   0.00044   1.56861
    A5        1.57079   0.00000   0.00000   0.00000   0.00000   1.57079
    A6        1.57343  -0.00003   0.00000  -0.00044  -0.00044   1.57299
    A7        1.57078   0.00000   0.00000   0.00001   0.00001   1.57079
    A8        1.57343  -0.00003   0.00000  -0.00044  -0.00044   1.57299
    A9        1.57078   0.00000   0.00000   0.00001   0.00001   1.57079
   A10        1.57343  -0.00004   0.00000  -0.00044  -0.00044   1.57299
   A11        1.57343  -0.00007   0.00000  -0.00045  -0.00044   1.57299
   A12        1.57079   0.00000   0.00000   0.00000   0.00000   1.57079
   A13        3.14159   0.00000   0.00000   0.00000   0.00000   3.14159
   A14        3.13633   0.00007  -0.00001   0.00089   0.00088   3.13721
   A15        3.13633   0.00010  -0.00001   0.00089   0.00088   3.13721
   A16        3.14159   0.00000   0.00000   0.00000   0.00000   3.14159
   A17        3.14159   0.00000   0.00000   0.00000   0.00000   3.14159
   A18        3.14159   0.00000   0.00000   0.00000   0.00000   3.14159
    D1        1.56817   0.00003   0.00000   0.00044   0.00044   1.56861
    D2       -1.56817  -0.00003   0.00000  -0.00044  -0.00044  -1.56861
    D3        1.56817   0.00003   0.00000   0.00044   0.00044   1.56861
    D4        1.56817   0.00004   0.00000   0.00045   0.00044   1.56861
    D5       -1.57080   0.00000   0.00000   0.00000   0.00000  -1.57080
    D6       -1.57343   0.00003   0.00000   0.00044   0.00044  -1.57299
    D7        1.57343  -0.00003   0.00000  -0.00044  -0.00044   1.57299
    D8       -1.57343   0.00004   0.00000   0.00044   0.00044  -1.57299
         Item               Value     Threshold  Converged?
 Maximum Force            0.000164     0.000450     YES
 RMS     Force            0.000047     0.000300     YES
 Maximum Displacement     0.002223     0.001800     NO 
 RMS     Displacement     0.000644     0.001200     YES
 Predicted change in Energy=-3.227351D-07
 GradGradGradGradGradGradGradGradGradGradGradGradGradGradGradGradGradGrad

                          Input orientation:                          
 ---------------------------------------------------------------------
 Center     Atomic      Atomic             Coordinates (Angstroms)
 Number     Number       Type             X           Y           Z
 ---------------------------------------------------------------------
      1         78           0        0.000000    0.000000    0.177101
      2         17           0        0.000000    0.000000    2.600633
      3         35           0        1.813231    1.813226    0.182720
      4         35           0       -1.813231    1.813226    0.182720
      5         35           0        0.000000    0.000000   -2.378645
      6         35           0       -1.813231   -1.813226    0.182720
      7         35           0        1.813231   -1.813226    0.182720
 ---------------------------------------------------------------------
                    Distance matrix (angstroms):
                    1          2          3          4          5
     1  Pt   0.000000
     2  Cl   2.423532   0.000000
     3  Br   2.564299   3.524472   0.000000
     4  Br   2.564299   3.524472   3.626461   0.000000
     5  Br   2.555746   4.979279   3.624388   3.624388   0.000000
     6  Br   2.564299   3.524472   5.128585   3.626453   3.624388
     7  Br   2.564299   3.524472   3.626453   5.128585   3.624388
                    6          7
     6  Br   0.000000
     7  Br   3.626461   0.000000
 Stoichiometry    Br5ClPt(2-)
 Framework group  C2V[C2(BrPtCl),X(Br4)]
 Deg. of freedom     5
 Full point group                 C2V     NOp   4
 Largest Abelian subgroup         C2V     NOp   4
 Largest concise Abelian subgroup C2V     NOp   4
                         Standard orientation:                         
 ---------------------------------------------------------------------
 Center     Atomic      Atomic             Coordinates (Angstroms)
 Number     Number       Type             X           Y           Z
 ---------------------------------------------------------------------
      1         78           0        0.000000    0.000000    0.175794
      2         17           0        0.000000    0.000000    2.599327
      3         35           0        1.813231    1.813226    0.181413
      4         35           0       -1.813231    1.813226    0.181413
      5         35           0        0.000000    0.000000   -2.379952
      6         35           0       -1.813231   -1.813226    0.181413
      7         35           0        1.813231   -1.813226    0.181413
 ---------------------------------------------------------------------
 Rotational constants (GHZ):      0.2908641      0.2908632      0.2434693
 Basis read from rwf:  (5D, 7F)
 Pseudo-potential data read from rwf file.
 There are    75 symmetry adapted cartesian basis functions of A1  symmetry.
 There are    41 symmetry adapted cartesian basis functions of A2  symmetry.
 There are    51 symmetry adapted cartesian basis functions of B1  symmetry.
 There are    51 symmetry adapted cartesian basis functions of B2  symmetry.
 There are    66 symmetry adapted basis functions of A1  symmetry.
 There are    38 symmetry adapted basis functions of A2  symmetry.
 There are    48 symmetry adapted basis functions of B1  symmetry.
 There are    48 symmetry adapted basis functions of B2  symmetry.
   200 basis functions,   480 primitive gaussians,   218 cartesian basis functions
   106 alpha electrons      106 beta electrons
       nuclear repulsion energy      2821.1030567979 Hartrees.
 NAtoms=    7 NActive=    7 NUniq=    4 SFac= 3.06D+00 NAtFMM=   60 NAOKFM=F Big=F
 Integral buffers will be    131072 words long.
 Raffenetti 2 integral format.
 Two-electron integral symmetry is turned on.
 ------------------------------------------------------------------------------
 Polarizable Continuum Model (PCM)
 =================================
 Model                : PCM (using non-symmetric T matrix).
 Atomic radii         : UFF (Universal Force Field).
 Polarization charges : Total charges.
 Charge compensation  : None.
 Solution method      : On-the-fly selection.
 Cavity type          : Scaled VdW (van der Waals Surface) (Alpha=1.100).
 Cavity algorithm     : GePol (No added spheres)
                        Default sphere list used, NSphG=    7.
                        Lebedev-Laikov grids with approx.  5.0 points / Ang**2.
                        Smoothing algorithm: Karplus/York (Gamma=1.0000).
                        Polarization charges: spherical gaussians, with
                                              point-specific exponents (IZeta= 3).
                        Self-potential: point-specific (ISelfS= 7).
                        Self-field    : sphere-specific E.n sum rule (ISelfD= 2).
 1st derivatives      : Analytical E(r).r(x)/FMM algorithm (CHGder, D1EAlg=3).
                        Cavity 1st derivative terms included.
 Solvent              : Water, Eps=  78.355300 Eps(inf)=   1.777849
 ------------------------------------------------------------------------------
 Spheres list:
 ISph  on   Nord     Re0    Alpha      Xe            Ye            Ze
    1  Pt      1    1.3770  1.100      0.000000      0.000000      0.175794
    2  Cl      2    1.9735  1.100      0.000000      0.000000      2.599327
    3  Br      3    2.0945  1.100      1.813231      1.813226      0.181413
    4  Br      4    2.0945  1.100     -1.813231      1.813226      0.181413
    5  Br      5    2.0945  1.100      0.000000      0.000000     -2.379952
    6  Br      6    2.0945  1.100     -1.813231     -1.813226      0.181413
    7  Br      7    2.0945  1.100      1.813231     -1.813226      0.181413
 ------------------------------------------------------------------------------
 One-electron integrals computed using PRISM.
   4 Symmetry operations used in ECPInt.
 ECPInt:  NShTT=    2926 NPrTT=   17254 LenC2=    2511 LenP2D=    9787.
 LDataN:  DoStor=T MaxTD1= 6 Len=  172
 GSVD:  received Info=                   1 from GESDD.
 NBasis=   200 RedAO= T EigKep=  4.64D-03  NBF=    66    38    48    48
 NBsUse=   200 1.00D-06 EigRej= -1.00D+00 NBFU=    66    38    48    48
 Defaulting to unpruned grid for atomic number  78.
 Initial guess from the checkpoint file:  "/home/scr/diego/Gau-25564.chk"
 B after Tr=     0.000000    0.000000    0.000000
         Rot=    1.000000    0.000000    0.000000    0.000000 Ang=   0.00 deg.
 Initial guess orbital symmetries:
       Occupied  (A1) (A1) (B2) (B1) (A2) (A1) (A1) (B2) (B1) (A1)
                 (A2) (A1) (B2) (B1) (A2) (A1) (B2) (B1) (A2) (A1)
                 (B2) (B1) (B2) (B1) (A2) (A1) (A1) (A1) (B2) (B1)
                 (A1) (A2) (A1) (B2) (B1) (A1) (B2) (B1) (A2) (A1)
                 (B2) (B1) (A1) (B2) (B1) (A2) (A2) (B2) (B1) (A1)
                 (A1) (A1) (B1) (B2) (A1) (A2) (B2) (B1) (B1) (B2)
                 (A1) (A2) (A1) (B1) (B2) (A2) (A2) (A1) (A2) (B1)
                 (B2) (A1) (A2) (B2) (B1) (A1) (A1) (B1) (B2) (A1)
                 (A1) (A1) (B1) (B2) (A2) (A1) (A2) (A1) (B1) (B2)
                 (A1) (A1) (B1) (B2) (B1) (B2) (A2) (A1) (B1) (B2)
                 (A1) (B1) (B2) (B1) (B2) (A2)
       Virtual   (A1) (A1) (A1) (A1) (A1) (A1) (A1) (A1) (A1) (A1)
                 (A1) (A1) (A1) (A1) (A1) (A1) (A1) (A1) (A1) (A1)
                 (A1) (A1) (A1) (A1) (A1) (A1) (A1) (A1) (A1) (A1)
                 (A1) (A2) (A2) (A2) (A2) (A2) (A2) (A2) (A2) (A2)
                 (A2) (A2) (A2) (A2) (A2) (A2) (A2) (A2) (A2) (A2)
                 (B1) (B1) (B1) (B1) (B1) (B1) (B1) (B1) (B1) (B1)
                 (B1) (B1) (B1) (B1) (B1) (B1) (B1) (B1) (B1) (B1)
                 (B1) (B1) (B2) (B2) (B2) (B2) (B2) (B2) (B2) (B2)
                 (B2) (B2) (B2) (B2) (B2) (B2) (B2) (B2) (B2) (B2)
                 (B2) (B2) (B2) (B2)
 Keep R1 ints in memory in symmetry-blocked form, NReq=252798676.
 Requested convergence on RMS density matrix=1.00D-08 within 128 cycles.
 Requested convergence on MAX density matrix=1.00D-06.
 Requested convergence on             energy=1.00D-06.
 No special actions if energy rises.
 Defaulting to unpruned grid for atomic number  78.
 Defaulting to unpruned grid for atomic number  78.
 Defaulting to unpruned grid for atomic number  78.
 Defaulting to unpruned grid for atomic number  78.
 Defaulting to unpruned grid for atomic number  78.
 Defaulting to unpruned grid for atomic number  78.
 Defaulting to unpruned grid for atomic number  78.
 Defaulting to unpruned grid for atomic number  78.
 Inv3:  Mode=1 IEnd=     8009868.
 Iteration    1 A*A^-1 deviation from unit magnitude is 6.77D-15 for   1322.
 Iteration    1 A*A^-1 deviation from orthogonality  is 3.88D-15 for   1207    706.
 Iteration    1 A^-1*A deviation from unit magnitude is 6.99D-15 for    593.
 Iteration    1 A^-1*A deviation from orthogonality  is 3.15D-15 for   1574   1002.
 Error on total polarization charges =  0.01961
 SCF Done:  E(RB3LYP) =  -13449.0961719     A.U. after    7 cycles
            NFock=  7  Conv=0.54D-08     -V/T= 2.0074
   4 Symmetry operations used in ECPInt.
 ECPInt:  NShTT=    2926 NPrTT=   17254 LenC2=    2511 LenP2D=    9787.
 LDataN:  DoStor=T MaxTD1= 7 Len=  274
 D1PCM: PCM CHGder 1st derivatives, ID1Alg=3 FixD1E=F DoIter=F DoCFld=F I1PDM=0.
 Calling FoFJK, ICntrl=      2127 FMM=F ISym2X=1 I1Cent= 0 IOpClX= 0 NMat=1 NMatS=1 NMatT=0.
 Defaulting to unpruned grid for atomic number  78.
 Defaulting to unpruned grid for atomic number  78.
 Defaulting to unpruned grid for atomic number  78.
 Defaulting to unpruned grid for atomic number  78.
 Defaulting to unpruned grid for atomic number  78.
 Defaulting to unpruned grid for atomic number  78.
 Defaulting to unpruned grid for atomic number  78.
 Defaulting to unpruned grid for atomic number  78.
 ***** Axes restored to original set *****
 -------------------------------------------------------------------
 Center     Atomic                   Forces (Hartrees/Bohr)
 Number     Number              X              Y              Z
 -------------------------------------------------------------------
      1       78           0.000000000    0.000000000   -0.000045847
      2       17           0.000000000    0.000000000    0.000024128
      3       35           0.000000292    0.000000486   -0.000005326
      4       35          -0.000000292    0.000000486   -0.000005326
      5       35           0.000000000    0.000000000    0.000043023
      6       35          -0.000000292   -0.000000486   -0.000005326
      7       35           0.000000292   -0.000000486   -0.000005326
 -------------------------------------------------------------------
 Cartesian Forces:  Max     0.000045847 RMS     0.000014880

 GradGradGradGradGradGradGradGradGradGradGradGradGradGradGradGradGradGrad
 Berny optimization.
 Using GEDIIS/GDIIS optimizer.
 FormGI is forming the generalized inverse of G from B-inverse, IUseBI=4.
 Internal  Forces:  Max     0.000043023 RMS     0.000009566
 Search for a local minimum.
 Step number   4 out of a maximum of   42
 All quantities printed in internal units (Hartrees-Bohrs-Radians)
 Mixed Optimization -- En-DIIS/RFO-DIIS
 Swapping is turned off.
 Update second derivatives using D2CorX and points    1    2    3    4
 DE= -3.77D-07 DEPred=-3.23D-07 R= 1.17D+00
 Trust test= 1.17D+00 RLast= 2.50D-03 DXMaxT set to 3.87D-01
 ITU=  0  1  1  0
     Eigenvalues ---    0.07012   0.08339   0.09159   0.09537   0.09782
     Eigenvalues ---    0.10138   0.11673   0.12245   0.12615   0.14245
     Eigenvalues ---    0.15459   0.15459   0.15459   0.19413   0.21640
 En-DIIS/RFO-DIIS IScMMF=        0 using points:     4    3
 RFO step:  Lambda= 0.00000000D+00.
 DidBck=F Rises=F RFO-DIIS coefs:    1.20629   -0.20629
 Iteration  1 RMS(Cart)=  0.00012870 RMS(Int)=  0.00000002
 Iteration  2 RMS(Cart)=  0.00000000 RMS(Int)=  0.00000002
 ClnCor:  largest displacement from symmetrization is 1.54D-06 for atom     7.
 Variable       Old X    -DE/DX   Delta X   Delta X   Delta X     New X
                                 (Linear)    (Quad)   (Total)
    R1        4.57981   0.00002   0.00009   0.00012   0.00021   4.58002
    R2        4.84582   0.00000   0.00003  -0.00002   0.00002   4.84584
    R3        4.84582   0.00000   0.00003  -0.00002   0.00002   4.84584
    R4        4.82966  -0.00004  -0.00026  -0.00014  -0.00040   4.82926
    R5        4.84582   0.00000   0.00003  -0.00002   0.00002   4.84584
    R6        4.84582   0.00000   0.00003  -0.00002   0.00002   4.84584
    A1        1.56861   0.00000   0.00009  -0.00003   0.00006   1.56867
    A2        1.56861   0.00000   0.00009  -0.00003   0.00006   1.56867
[...]
  Atom  AN      X      Y      Z        X      Y      Z        X      Y      Z
     1  78     0.00   0.00   0.00     0.00   0.00   0.10     0.00   0.00   0.32
     2  17     0.00   0.00   0.00     0.00   0.00   0.19     0.00   0.00   0.33
     3  35     0.35   0.35   0.00    -0.33  -0.33  -0.02     0.12   0.12  -0.03
     4  35     0.35  -0.35   0.00     0.33  -0.33  -0.02    -0.12   0.12  -0.03
     5  35     0.00   0.00   0.00     0.00   0.00  -0.26     0.00   0.00  -0.82
     6  35    -0.35  -0.35   0.00     0.33   0.33  -0.02    -0.12  -0.12  -0.03
     7  35    -0.35   0.35   0.00    -0.33   0.33  -0.02     0.12  -0.12  -0.03
                     13                     14                     15
                     ?A                     ?A                     A1
 Frequencies --    210.4510               210.4510               293.4156
 Red. masses --    114.5846               114.5847                40.6485
 Frc consts  --      2.9901                 2.9901                 2.0619
 IR Inten    --     55.2421                55.2427                70.7920
  Atom  AN      X      Y      Z        X      Y      Z        X      Y      Z
     1  78     0.01   0.56   0.00     0.56  -0.01   0.00     0.00   0.00  -0.19
     2  17     0.00  -0.17   0.00    -0.17   0.00   0.00     0.00   0.00   0.98
     3  35    -0.26  -0.32   0.00    -0.31  -0.25   0.00     0.01   0.01   0.01
     4  35     0.25  -0.31   0.00    -0.32   0.26   0.00    -0.01   0.01   0.01
     5  35     0.00  -0.06   0.00    -0.06   0.00   0.00     0.00   0.00   0.01
     6  35    -0.26  -0.32   0.00    -0.31  -0.25   0.00    -0.01  -0.01   0.01
     7  35     0.25  -0.31   0.00    -0.32   0.26   0.00     0.01  -0.01   0.01

 -------------------
 - Thermochemistry -
 -------------------
 Temperature   298.150 Kelvin.  Pressure   1.00000 Atm.
 Atom     1 has atomic number 78 and mass 194.96480
 Atom     2 has atomic number 17 and mass  34.96885
 Atom     3 has atomic number 35 and mass  78.91834
 Atom     4 has atomic number 35 and mass  78.91834
 Atom     5 has atomic number 35 and mass  78.91834
 Atom     6 has atomic number 35 and mass  78.91834
 Atom     7 has atomic number 35 and mass  78.91834
 Molecular mass:   624.52533 amu.
 Principal axes and moments of inertia in atomic units:
                           1         2         3
     Eigenvalues --  6204.758106204.776247412.60273
           X            1.00000   0.00000   0.00000
           Y            0.00000   1.00000   0.00000
           Z            0.00000   0.00000   1.00000
 This molecule is an asymmetric top.
 Rotational symmetry number  2.
 Warning -- assumption of classical behavior for rotation
           may cause significant error
 Rotational temperatures (Kelvin)      0.01396     0.01396     0.01168
 Rotational constants (GHZ):           0.29086     0.29086     0.24347
 Zero-point vibrational energy      12428.4 (Joules/Mol)
                                    2.97046 (Kcal/Mol)
 Warning -- explicit consideration of  15 degrees of freedom as
           vibrations may cause significant error
 Vibrational temperatures:     67.71   105.69   105.69   126.77   128.71
          (Kelvin)            128.72   157.12   176.26   176.27   239.50
                              261.16   288.24   302.79   302.79   422.16
 
 Zero-point correction=                           0.004734 (Hartree/Particle)
 Thermal correction to Energy=                    0.017634
 Thermal correction to Enthalpy=                  0.018578
 Thermal correction to Gibbs Free Energy=        -0.040228
 Sum of electronic and zero-point Energies=         -13449.091438
 Sum of electronic and thermal Energies=            -13449.078538
 Sum of electronic and thermal Enthalpies=          -13449.077594
 Sum of electronic and thermal Free Energies=       -13449.136400
 
                     E (Thermal)             CV                S
                      KCal/Mol        Cal/Mol-Kelvin    Cal/Mol-Kelvin
 Total                   11.065             34.470            123.767
 Electronic               0.000              0.000              0.000
 Translational            0.889              2.981             45.178
 Rotational               0.889              2.981             32.634
 Vibrational              9.288             28.509             45.955
 Vibration     1          0.595              1.979              4.937
 Vibration     2          0.599              1.967              4.059
 Vibration     3          0.599              1.967              4.059
 Vibration     4          0.601              1.958              3.702
 Vibration     5          0.602              1.957              3.672
 Vibration     6          0.602              1.957              3.672
 Vibration     7          0.606              1.942              3.283
 Vibration     8          0.610              1.930              3.060
 Vibration     9          0.610              1.930              3.060
 Vibration    10          0.624              1.884              2.475
 Vibration    11          0.630              1.865              2.313
 Vibration    12          0.638              1.839              2.130
 Vibration    13          0.643              1.825              2.040
 Vibration    14          0.643              1.825              2.040
 Vibration    15          0.688              1.686              1.454
                       Q            Log10(Q)             Ln(Q)
 Total Bot       0.318800D+19         18.503518         42.605925
 Total V=0       0.479599D+21         20.680879         47.619483
 Vib (Bot)       0.171874D+04          3.235211          7.449348
 Vib (Bot)    1  0.439361D+01          0.642821          1.480150
 Vib (Bot)    2  0.280633D+01          0.448139          1.031878
 Vib (Bot)    3  0.280632D+01          0.448137          1.031874
 Vib (Bot)    4  0.233419D+01          0.368136          0.847665
 Vib (Bot)    5  0.229848D+01          0.361440          0.832247
 Vib (Bot)    6  0.229846D+01          0.361437          0.832240
 Vib (Bot)    7  0.187582D+01          0.273190          0.629044
 Vib (Bot)    8  0.166711D+01          0.221963          0.511089
 Vib (Bot)    9  0.166710D+01          0.221960          0.511083
 Vib (Bot)   10  0.121203D+01          0.083514          0.192298
 Vib (Bot)   11  0.110594D+01          0.043730          0.100693
 Vib (Bot)   12  0.995186D+00         -0.002096         -0.004825
 Vib (Bot)   13  0.943594D+00         -0.025215         -0.058059
 Vib (Bot)   14  0.943594D+00         -0.025215         -0.058059
 Vib (Bot)   15  0.650530D+00         -0.186733         -0.429968
 Vib (V=0)       0.258566D+06          5.412571         12.462905
 Vib (V=0)    1  0.492196D+01          0.692138          1.593708
 Vib (V=0)    2  0.335052D+01          0.525113          1.209117
 Vib (V=0)    3  0.335051D+01          0.525111          1.209114
 Vib (V=0)    4  0.288714D+01          0.460468          1.060266
 Vib (V=0)    5  0.285223D+01          0.455185          1.048102
 Vib (V=0)    6  0.285222D+01          0.455182          1.048096
 Vib (V=0)    7  0.244131D+01          0.387623          0.892535
 Vib (V=0)    8  0.224047D+01          0.350340          0.806687
 Vib (V=0)    9  0.224046D+01          0.350337          0.806682
 Vib (V=0)   10  0.181111D+01          0.257946          0.593942
 Vib (V=0)   11  0.171371D+01          0.233938          0.538661
 Vib (V=0)   12  0.161373D+01          0.207831          0.478549
 Vib (V=0)   13  0.156788D+01          0.195313          0.449725
 Vib (V=0)   14  0.156788D+01          0.195313          0.449725
 Vib (V=0)   15  0.132048D+01          0.120732          0.277996
 Electronic      0.100000D+01          0.000000          0.000000
 Translational   0.613452D+09          8.787780         20.234612
 Rotational      0.302362D+07          6.480527         14.921965
 ***** Axes restored to original set *****
 -------------------------------------------------------------------
 Center     Atomic                   Forces (Hartrees/Bohr)
 Number     Number              X              Y              Z
 -------------------------------------------------------------------
      1       78           0.000000000    0.000000000   -0.000045891
      2       17           0.000000000    0.000000000    0.000024166
      3       35           0.000000279    0.000000474   -0.000005330
      4       35          -0.000000279    0.000000474   -0.000005330
      5       35           0.000000000    0.000000000    0.000043044
      6       35          -0.000000279   -0.000000474   -0.000005330
      7       35           0.000000279   -0.000000474   -0.000005330
 -------------------------------------------------------------------
 Cartesian Forces:  Max     0.000045891 RMS     0.000014893
 FormGI is forming the generalized inverse of G from B-inverse, IUseBI=4.

 GradGradGradGradGradGradGradGradGradGradGradGradGradGradGradGradGradGrad
 Berny optimization.
 Internal  Forces:  Max     0.000043044 RMS     0.000009573
 Search for a local minimum.
 Step number   1 out of a maximum of    2
 All quantities printed in internal units (Hartrees-Bohrs-Radians)
 Second derivative matrix not updated -- analytic derivatives used.
 ITU=  0
     Eigenvalues ---    0.02609   0.04484   0.05997   0.06198   0.06388
     Eigenvalues ---    0.06547   0.07260   0.07905   0.08277   0.08441
     Eigenvalues ---    0.09475   0.09567   0.10146   0.11167   0.12111
 Angle between quadratic step and forces=   7.31 degrees.
 Linear search not attempted -- first point.
 Iteration  1 RMS(Cart)=  0.00012788 RMS(Int)=  0.00000000
 Iteration  2 RMS(Cart)=  0.00000000 RMS(Int)=  0.00000000
 ClnCor:  largest displacement from symmetrization is 2.04D-08 for atom     6.
 Variable       Old X    -DE/DX   Delta X   Delta X   Delta X     New X
                                 (Linear)    (Quad)   (Total)
    R1        4.57981   0.00002   0.00000   0.00029   0.00029   4.58010
    R2        4.84582   0.00000   0.00000   0.00001   0.00001   4.84583
    R3        4.84582   0.00000   0.00000   0.00001   0.00001   4.84583
    R4        4.82966  -0.00004   0.00000  -0.00051  -0.00051   4.82915
    R5        4.84582   0.00000   0.00000   0.00001   0.00001   4.84583
    R6        4.84582   0.00000   0.00000   0.00001   0.00001   4.84583
    A1        1.56861   0.00000   0.00000   0.00004   0.00004   1.56865
    A2        1.56861   0.00000   0.00000   0.00004   0.00004   1.56865
    A3        1.56861   0.00000   0.00000   0.00004   0.00004   1.56865
    A4        1.56861   0.00001   0.00000   0.00004   0.00004   1.56865
    A5        1.57079   0.00000   0.00000   0.00000   0.00000   1.57079
    A6        1.57299   0.00000   0.00000  -0.00004  -0.00004   1.57294
    A7        1.57079   0.00000   0.00000   0.00000   0.00000   1.57079
    A8        1.57299   0.00000   0.00000  -0.00004  -0.00004   1.57294
    A9        1.57079   0.00000   0.00000   0.00000   0.00000   1.57079
   A10        1.57299   0.00000   0.00000  -0.00004  -0.00004   1.57294
   A11        1.57299  -0.00001   0.00000  -0.00004  -0.00004   1.57294
   A12        1.57079   0.00000   0.00000   0.00000   0.00000   1.57079
   A13        3.14159   0.00000   0.00000   0.00000   0.00000   3.14159
   A14        3.13721   0.00001   0.00000   0.00009   0.00009   3.13730
   A15        3.13721   0.00001   0.00000   0.00009   0.00009   3.13730
   A16        3.14159   0.00000   0.00000   0.00000   0.00000   3.14159
   A17        3.14159   0.00000   0.00000   0.00000   0.00000   3.14159
   A18        3.14159   0.00000   0.00000   0.00000   0.00000   3.14159
    D1        1.56861   0.00000   0.00000   0.00004   0.00004   1.56865
    D2       -1.56861   0.00000   0.00000  -0.00004  -0.00004  -1.56865
    D3        1.56861   0.00000   0.00000   0.00004   0.00004   1.56865
    D4        1.56861   0.00000   0.00000   0.00004   0.00004   1.56865
    D5       -1.57080   0.00000   0.00000   0.00000   0.00000  -1.57080
    D6       -1.57299   0.00000   0.00000   0.00004   0.00004  -1.57294
    D7        1.57299   0.00000   0.00000  -0.00004  -0.00004   1.57294
    D8       -1.57299   0.00000   0.00000   0.00004   0.00004  -1.57294
         Item               Value     Threshold  Converged?
 Maximum Force            0.000043     0.000450     YES
 RMS     Force            0.000010     0.000300     YES
 Maximum Displacement     0.000518     0.001800     YES
 RMS     Displacement     0.000128     0.001200     YES
 Predicted change in Energy=-1.680854D-08
 Optimization completed.
    -- Stationary point found.
                           ----------------------------
                           !   Optimized Parameters   !
                           ! (Angstroms and Degrees)  !
 --------------------------                            --------------------------
 ! Name  Definition              Value          Derivative Info.                !
 --------------------------------------------------------------------------------
 ! R1    R(1,2)                  2.4235         -DE/DX =    0.0                 !
 ! R2    R(1,3)                  2.5643         -DE/DX =    0.0                 !
 ! R3    R(1,4)                  2.5643         -DE/DX =    0.0                 !
 ! R4    R(1,5)                  2.5557         -DE/DX =    0.0                 !
 ! R5    R(1,6)                  2.5643         -DE/DX =    0.0                 !
 ! R6    R(1,7)                  2.5643         -DE/DX =    0.0                 !
 ! A1    A(2,1,3)               89.8745         -DE/DX =    0.0                 !
 ! A2    A(2,1,4)               89.8745         -DE/DX =    0.0                 !
 ! A3    A(2,1,6)               89.8745         -DE/DX =    0.0                 !
 ! A4    A(2,1,7)               89.8745         -DE/DX =    0.0                 !
 ! A5    A(3,1,4)               89.9999         -DE/DX =    0.0                 !
 ! A6    A(3,1,5)               90.1255         -DE/DX =    0.0                 !
 ! A7    A(3,1,7)               89.9996         -DE/DX =    0.0                 !
 ! A8    A(4,1,5)               90.1255         -DE/DX =    0.0                 !
 ! A9    A(4,1,6)               89.9996         -DE/DX =    0.0                 !
 ! A10   A(5,1,6)               90.1255         -DE/DX =    0.0                 !
 ! A11   A(5,1,7)               90.1255         -DE/DX =    0.0                 !
 ! A12   A(6,1,7)               89.9999         -DE/DX =    0.0                 !
 ! A13   L(2,1,5,3,-1)         180.0            -DE/DX =    0.0                 !
 ! A14   L(3,1,6,2,-1)         179.7489         -DE/DX =    0.0                 !
 ! A15   L(4,1,7,2,-1)         179.7489         -DE/DX =    0.0                 !
 ! A16   L(2,1,5,3,-2)         180.0            -DE/DX =    0.0                 !
 ! A17   L(3,1,6,2,-2)         180.0            -DE/DX =    0.0                 !
 ! A18   L(4,1,7,2,-2)         180.0            -DE/DX =    0.0                 !
 ! D1    D(2,1,4,3)             89.8745         -DE/DX =    0.0                 !
 ! D2    D(2,1,7,3)            -89.8745         -DE/DX =    0.0                 !
 ! D3    D(2,1,6,4)             89.8745         -DE/DX =    0.0                 !
 ! D4    D(2,1,7,6)             89.8745         -DE/DX =    0.0                 !
 ! D5    D(3,1,5,4)            -90.0001         -DE/DX =    0.0                 !
 ! D6    D(3,1,7,5)            -90.1255         -DE/DX =    0.0                 !
 ! D7    D(4,1,6,5)             90.1255         -DE/DX =    0.0                 !
 ! D8    D(5,1,7,6)            -90.1255         -DE/DX =    0.0                 !
 --------------------------------------------------------------------------------
 GradGradGradGradGradGradGradGradGradGradGradGradGradGradGradGradGradGrad

 1\1\GINC-NEQC17\Freq\RB3LYP\Gen\Br5Cl1Pt1(2-)\DIEGO\18-Aug-2021\0\\#N 
 Geom=AllCheck Guess=TCheck SCRF=Check GenChk RB3LYP/ChkBas Freq\\Estru
 tura 10\\-2,1\Pt,0.,0.,0.177101103\Cl,0.,0.,2.6006332767\Br,1.81323073
 41,1.8132262956,0.1827195479\Br,-1.8132307341,1.8132262956,0.182719547
 9\Br,0.,0.,-2.3786452578\Br,-1.8132307341,-1.8132262956,0.1827195479\B
 r,1.8132307341,-1.8132262956,0.1827195479\\Version=EM64L-G09RevD.01\St
 ate=1-A1\HF=-13449.0961719\RMSD=2.172e-09\RMSF=1.489e-05\ZeroPoint=0.0
 047337\Thermal=0.0176335\Dipole=0.,0.,-0.6926477\DipoleDeriv=1.4226874
 ,0.,0.,0.,1.4226739,0.,0.,0.,1.2515524,-0.157589,0.,0.,0.,-0.1575901,0
 .,0.,0.,-1.5013876,-0.7956399,-0.7072428,0.0047405,-0.7072473,-0.79563
 61,0.0047412,-0.0216957,-0.0216956,-0.1093059,-0.7956399,0.7072428,-0.
 0047405,0.7072473,-0.7956361,0.0047412,0.0216957,-0.0216955,-0.1093059
 ,-0.0825386,0.,0.,0.,-0.0825391,0.,0.,0.,-1.3129412,-0.7956399,-0.7072
 428,-0.0047405,-0.7072473,-0.7956362,-0.0047412,0.0216957,0.0216956,-0
 .1093059,-0.7956399,0.7072428,0.0047405,0.7072473,-0.7956361,-0.004741
 2,-0.0216957,0.0216955,-0.1093059\Polar=254.3688047,0.,254.3679204,-0.
 0000002,0.,220.1919341\PG=C02V [C2(Br1Pt1Cl1),X(Br4)]\NImag=0\\0.18888
 962,0.,0.18888935,0.,0.,0.20520852,-0.01643719,0.,0.,0.01410720,0.,-0.
 01643717,0.,0.,0.01410754,0.,0.,-0.08125854,0.,0.,0.09830630,-0.039220
 39,-0.02453519,-0.00035559,-0.00027493,-0.00170219,0.00206597,0.046526
 11,-0.02453511,-0.03922033,-0.00035560,-0.00170219,-0.00027502,0.00206
 602,0.03434593,0.04652605,-0.00012796,-0.00012796,-0.01434708,0.003685
 33,0.00368539,-0.00142928,0.00037554,0.00037551,0.00940333,-0.03922039
 ,0.02453519,0.00035559,-0.00027493,0.00170219,-0.00206597,-0.00687821,
 0.00119056,0.00003344,0.04652611,0.02453511,-0.03922033,-0.00035560,0.
 00170219,-0.00027502,0.00206602,-0.00119056,0.00469330,-0.00002924,-0.
 03434593,0.04652605,0.00012796,-0.00012796,-0.01434708,-0.00368533,0.0
 0368539,-0.00142928,-0.00003344,-0.00002924,0.00285238,-0.00037554,0.0
 0037551,0.00940332,-0.01557086,0.,0.,0.00342971,0.,0.,-0.00078529,-0.0
 0110259,-0.00384851,-0.00078529,0.00110259,0.00384851,0.01528231,0.,-0
 .01557086,0.,0.,0.00342971,0.,-0.00110260,-0.00078530,-0.00384855,0.00
 110260,-0.00078530,-0.00384855,0.,0.01528236,0.,0.,-0.06656167,0.,0.,-
 0.01133063,-0.00211183,-0.00211181,-0.00225536,0.00211183,-0.00211181,
 -0.00225536,0.,0.,0.08691373,-0.03922039,-0.02453519,0.00035559,-0.000
 27493,-0.00170219,-0.00206597,-0.00406041,-0.00700600,-0.00008860,0.00
 469312,0.00119060,0.00002924,-0.00078529,-0.00110260,0.00211183,0.0465
 2611,-0.02453511,-0.03922033,0.00035560,-0.00170219,-0.00027502,-0.002
 06602,-0.00700600,-0.00406039,-0.00008860,-0.00119060,-0.00687831,0.00
 003346,-0.00110259,-0.00078530,0.00211181,0.03434593,0.04652605,0.0001
 2796,0.00012796,-0.01434708,-0.00368533,-0.00368539,-0.00142928,0.0000
 8860,0.00008860,0.00292380,0.00002924,-0.00003346,0.00285221,0.0038485
 1,0.00384855,-0.00225536,-0.00037554,-0.00037551,0.00940333,-0.0392203
 9,0.02453519,-0.00035559,-0.00027493,0.00170219,0.00206597,0.00469312,
 -0.00119060,-0.00002924,-0.00406041,0.00700600,0.00008860,-0.00078529,
 0.00110260,-0.00211183,-0.00687821,0.00119056,-0.00003344,0.04652611,0
 .02453511,-0.03922033,0.00035560,0.00170219,-0.00027502,-0.00206602,0.
 00119060,-0.00687831,0.00003346,0.00700600,-0.00406039,-0.00008860,0.0
 0110259,-0.00078530,0.00211181,-0.00119056,0.00469330,0.00002924,-0.03
 434593,0.04652605,-0.00012796,0.00012796,-0.01434708,0.00368533,-0.003
 68539,-0.00142928,-0.00002924,-0.00003346,0.00285221,-0.00008860,0.000
 08860,0.00292380,-0.00384851,0.00384855,-0.00225536,0.00003344,0.00002
 924,0.00285238,0.00037554,-0.00037551,0.00940332\\0.,0.,0.00004589,0.,
 0.,-0.00002417,-0.00000028,-0.00000047,0.00000533,0.00000028,-0.000000
 47,0.00000533,0.,0.,-0.00004304,0.00000028,0.00000047,0.00000533,-0.00
 000028,0.00000047,0.00000533\\\@


 Everything starts as somebody's daydream.
                           -- Larry Niven
 Job cpu time:       0 days  0 hours  8 minutes 17.8 seconds.
 File lengths (MBytes):  RWF=     88 Int=      0 D2E=      0 Chk=      8 Scr=      1
 Normal termination of Gaussian 09 at Wed Aug 18 02:36:07 2021.
