 Entering Gaussian System, Link 0=g09
 Input=11_D2O.com
 Output=11_D2O.log
 Initial command:
 /scr/programs/g09/l1.exe /scr/guest/Gau-16579.inp -scrdir=/scr/guest/
 Entering Link 1 = /scr/programs/g09/l1.exe PID=     16580.
  
 Copyright (c) 1988,1990,1992,1993,1995,1998,2003,2009, Gaussian, Inc.
                  All Rights Reserved.
  
 This is part of the Gaussian(R) 09 program.  It is based on
 the Gaussian(R) 03 system (copyright 2003, Gaussian, Inc.),
 the Gaussian(R) 98 system (copyright 1998, Gaussian, Inc.),
 the Gaussian(R) 94 system (copyright 1995, Gaussian, Inc.),
 the Gaussian 92(TM) system (copyright 1992, Gaussian, Inc.),
 the Gaussian 90(TM) system (copyright 1990, Gaussian, Inc.),
 the Gaussian 88(TM) system (copyright 1988, Gaussian, Inc.),
 the Gaussian 86(TM) system (copyright 1986, Carnegie Mellon
 University), and the Gaussian 82(TM) system (copyright 1983,
 Carnegie Mellon University). Gaussian is a federally registered
 trademark of Gaussian, Inc.
  
 This software contains proprietary and confidential information,
 including trade secrets, belonging to Gaussian, Inc.
  
 This software is provided under written license and may be
 used, copied, transmitted, or stored only in accord with that
 written license.
  
 The following legend is applicable only to US Government
 contracts under FAR:
  
                    RESTRICTED RIGHTS LEGEND
  
 Use, reproduction and disclosure by the US Government is
 subject to restrictions as set forth in subparagraphs (a)
 and (c) of the Commercial Computer Software - Restricted
 Rights clause in FAR 52.227-19.
  
 Gaussian, Inc.
 340 Quinnipiac St., Bldg. 40, Wallingford CT 06492
  
  
 ---------------------------------------------------------------
 Warning -- This program may not be used in any manner that
 competes with the business of Gaussian, Inc. or will provide
 assistance to any competitor of Gaussian, Inc.  The licensee
 of this program is prohibited from giving any competitor of
 Gaussian, Inc. access to this program.  By using this program,
 the user acknowledges that Gaussian, Inc. is engaged in the
 business of creating and licensing software in the field of
 computational chemistry and represents and warrants to the
 licensee that it is not a competitor of Gaussian, Inc. and that
 it will not use this program in any manner prohibited above.
 ---------------------------------------------------------------
  

 Cite this work as:
 Gaussian 09, Revision A.02,
 M. J. Frisch, G. W. Trucks, H. B. Schlegel, G. E. Scuseria, 
 M. A. Robb, J. R. Cheeseman, G. Scalmani, V. Barone, B. Mennucci, 
 G. A. Petersson, H. Nakatsuji, M. Caricato, X. Li, H. P. Hratchian, 
 A. F. Izmaylov, J. Bloino, G. Zheng, J. L. Sonnenberg, M. Hada, 
 M. Ehara, K. Toyota, R. Fukuda, J. Hasegawa, M. Ishida, T. Nakajima, 
 Y. Honda, O. Kitao, H. Nakai, T. Vreven, J. A. Montgomery, Jr., 
 J. E. Peralta, F. Ogliaro, M. Bearpark, J. J. Heyd, E. Brothers, 
 K. N. Kudin, V. N. Staroverov, R. Kobayashi, J. Normand, 
 K. Raghavachari, A. Rendell, J. C. Burant, S. S. Iyengar, J. Tomasi, 
 M. Cossi, N. Rega, J. M. Millam, M. Klene, J. E. Knox, J. B. Cross, 
 V. Bakken, C. Adamo, J. Jaramillo, R. Gomperts, R. E. Stratmann, 
 O. Yazyev, A. J. Austin, R. Cammi, C. Pomelli, J. W. Ochterski, 
 R. L. Martin, K. Morokuma, V. G. Zakrzewski, G. A. Voth, 
 P. Salvador, J. J. Dannenberg, S. Dapprich, A. D. Daniels, 
 O. Farkas, J. B. Foresman, J. V. Ortiz, J. Cioslowski, 
 and D. J. Fox, Gaussian, Inc., Wallingford CT, 2009.
 
 ******************************************
 Gaussian 09:  EM64L-G09RevA.02 11-Jun-2009
                 1-Dec-2021 
 ******************************************
 %mem=30gb
 %nproc=24
 Will use up to   24 processors via shared memory.
 -----------------------------------------------------------------
 #b3lyp/gen pseudo=read opt=(loose,cartesian) scrf=(solvent=water)
 -----------------------------------------------------------------
 1/7=-1,10=7,14=-1,18=10,26=3,38=1/1,3;
 2/12=2,17=6,18=5,29=2,40=1/2;
 3/5=7,11=2,16=1,17=8,25=1,30=1,70=2201,71=1,72=1,74=-5/1,2,3;
 4//1;
 5/5=2,38=5,53=1/2;
 6/7=2,8=2,9=2,10=2,28=1/1;
 7/7=1,29=1/1,2,3,16;
 1/7=-1,10=7,14=-1,18=10/3(2);
 2/29=1/2;
 99/12=1/99;
 2/29=1/2;
 3/5=7,6=1,11=2,16=1,17=8,25=1,30=1,70=2205,71=1,72=1,74=-5,82=7/1,2,3;
 4/5=5,16=3/1;
 5/5=2,38=5,53=1/2;
 7/7=1/1,2,3,16;
 1/7=-1,14=-1,18=10/3(-5);
 2/29=1/2;
 6/7=2,8=2,9=2,10=2,19=2,28=1/1;
 99/9=1,12=1/99;
 ------------
 Estrutura 11
 ------------
 Symbolic Z-matrix:
 Charge = -2 Multiplicity = 1
 Pt                    0.        0.        0. 
 Br                    0.        0.        2.50479 
 Br                    0.        2.50479   0. 
 Br                    2.50479   0.        0. 
 Br                    0.        0.       -2.50479 
 Br                    0.       -2.50479   0. 
 Br                   -2.50479   0.        0. 
 

 GradGradGradGradGradGradGradGradGradGradGradGradGradGradGradGradGradGrad
 Berny optimization.
 Initialization pass.
 No Z-matrix variables, so optimization will use Cartesian coordinates.
 Trust Radius=3.00D-01 FncErr=1.00D-07 GrdErr=1.00D-06
 Number of steps in this run=  31 maximum allowed number of steps= 100.
 GradGradGradGradGradGradGradGradGradGradGradGradGradGradGradGradGradGrad

 ---------------------------------------------------------------------------------------------------
                            Z-MATRIX (ANGSTROMS AND DEGREES)
   CD    Cent   Atom    N1       Length/X        N2       Alpha/Y        N3        Beta/Z          J
 ---------------------------------------------------------------------------------------------------
      1      1  Pt       0   0.000000          0.000000          0.000000
      2      2  Br       0   0.000000          0.000000          2.504789
      3      3  Br       0   0.000000          2.504789          0.000000
      4      4  Br       0   2.504789          0.000000          0.000000
      5      5  Br       0   0.000000          0.000000         -2.504789
      6      6  Br       0   0.000000         -2.504789          0.000000
      7      7  Br       0  -2.504789          0.000000          0.000000
 ---------------------------------------------------------------------------------------------------
                         Z-Matrix orientation:                         
 ---------------------------------------------------------------------
 Center     Atomic      Atomic             Coordinates (Angstroms)
 Number     Number       Type             X           Y           Z
 ---------------------------------------------------------------------
      1         78           0        0.000000    0.000000    0.000000
      2         35           0        0.000000    0.000000    2.504789
      3         35           0        0.000000    2.504789    0.000000
      4         35           0        2.504789    0.000000    0.000000
      5         35           0        0.000000    0.000000   -2.504789
      6         35           0        0.000000   -2.504789    0.000000
      7         35           0       -2.504789    0.000000    0.000000
 ---------------------------------------------------------------------
                    Distance matrix (angstroms):
                    1          2          3          4          5
     1  Pt   0.000000
     2  Br   2.504789   0.000000
     3  Br   2.504789   3.542307   0.000000
     4  Br   2.504789   3.542307   3.542307   0.000000
     5  Br   2.504789   5.009578   3.542307   3.542307   0.000000
     6  Br   2.504789   3.542307   5.009578   3.542307   3.542307
     7  Br   2.504789   3.542307   3.542307   5.009578   3.542307
                    6          7
     6  Br   0.000000
     7  Br   3.542307   0.000000
 Stoichiometry    Br6Pt(2-)
 Framework group  OH[O(Pt),3C4(Br.Br)]
 Deg. of freedom     1
 Full point group                 OH      NOp  48
 Largest Abelian subgroup         D2H     NOp   8
 Largest concise Abelian subgroup D2H     NOp   8
                         Standard orientation:                         
 ---------------------------------------------------------------------
 Center     Atomic      Atomic             Coordinates (Angstroms)
 Number     Number       Type             X           Y           Z
 ---------------------------------------------------------------------
      1         78           0        0.000000    0.000000    0.000000
      2         35           0        0.000000    0.000000    2.504789
      3         35           0        0.000000    2.504789    0.000000
      4         35           0        2.504789    0.000000    0.000000
      5         35           0        0.000000    0.000000   -2.504789
      6         35           0        0.000000   -2.504789    0.000000
      7         35           0       -2.504789    0.000000    0.000000
 ---------------------------------------------------------------------
 Rotational constants (GHZ):      0.2551743      0.2551743      0.2551743
 General basis read from cards:  (5D, 7F)
 ======================================================================================================
                                       Pseudopotential Parameters
 ======================================================================================================
  Center     Atomic      Valence      Angular      Power
  Number     Number     Electrons     Momentum     of R      Exponent        Coefficient   SO-Coeffient
 ======================================================================================================
    1         78           18
                                      G and up 
                                                     1      728.9394056       -0.16192680    0.00000000
                                                     2      320.6567800    -1320.28738520    0.00000000
                                                     2       52.8680174     -298.31781350    0.00000000
                                                     2       12.0280128      -87.58370650    0.00000000
                                                     2        3.5238913       -8.14932740    0.00000000
                                      S - G
                                                     0      409.4437358        2.73342180    0.00000000
                                                     1      274.5419231       59.70243290    0.00000000
                                                     2      127.5658570      891.45895500    0.00000000
                                                     2       32.9036631      368.44676560    0.00000000
                                                     2        5.0593880      238.02630900    0.00000000
                                                     2        4.1506556     -107.05564540    0.00000000
                                      P - G
                                                     0      466.1728892        1.88785680    0.00000000
                                                     1      120.7888259       76.01386290    0.00000000
                                                     2       36.4118791      343.55111160    0.00000000
                                                     2        5.6985408      119.49117860    0.00000000
                                      D - G
                                                     0      249.5650763        2.93436780    0.00000000
                                                     1      126.6678585       59.33065710    0.00000000
                                                     2       63.1430586      452.44451940    0.00000000
                                                     2       17.9059470      210.47694790    0.00000000
                                                     2        4.2239373       58.62541120    0.00000000
                                      F - G
                                                     0      121.8158799        3.95342530    0.00000000
                                                     1       60.8757030       53.85551820    0.00000000
                                                     2       31.4767147      247.43051330    0.00000000
                                                     2        9.8811751      127.81879760    0.00000000
                                                     2        2.7319874       15.37720460    0.00000000
    2         35
                                   No pseudopotential on this center.
    3         35
                                   No pseudopotential on this center.
    4         35
                                   No pseudopotential on this center.
    5         35
                                   No pseudopotential on this center.
    6         35
                                   No pseudopotential on this center.
    7         35
                                   No pseudopotential on this center.
 ======================================================================================================
 There are    52 symmetry adapted basis functions of AG  symmetry.
 There are    19 symmetry adapted basis functions of B1G symmetry.
 There are    19 symmetry adapted basis functions of B2G symmetry.
 There are    19 symmetry adapted basis functions of B3G symmetry.
 There are     9 symmetry adapted basis functions of AU  symmetry.
 There are    32 symmetry adapted basis functions of B1U symmetry.
 There are    32 symmetry adapted basis functions of B2U symmetry.
 There are    32 symmetry adapted basis functions of B3U symmetry.
 Integral buffers will be    131072 words long.
 Raffenetti 2 integral format.
 Two-electron integral symmetry is turned on.
   214 basis functions,   523 primitive gaussians,   234 cartesian basis functions
   115 alpha electrons      115 beta electrons
       nuclear repulsion energy      3382.7877003259 Hartrees.
 NAtoms=    7 NActive=    7 NUniq=    2 SFac= 3.00D+00 NAtFMM=   80 NAOKFM=F Big=F
 ------------------------------------------------------------------------------
 Polarizable Continuum Model (PCM)
 =================================
 Model                : PCM.
 Atomic radii         : UFF (Universal Force Field).
 Polarization charges : Total charges.
 Charge compensation  : None.
 Solution method      : Matrix inversion.
 Cavity type          : Scaled VdW (van der Waals Surface) (Alpha=1.100).
 Cavity algorithm     : GePol (No added spheres)
                        Default sphere list used, NSphG=    7.
                        Lebedev-Laikov grids with approx.  5.0 points / Ang**2.
                        Smoothing algorithm: Karplus/York (Gamma=1.0000).
                        Polarization charges: spherical gaussians, with
                                              point-specific exponents (IZeta= 3).
                        Self-potential: point-specific (ISelfS= 7).
                        Self-field    : sphere-specific E.n sum rule (ISelfD= 2).
 1st derivatives      : Analytical E(r).r(x)/FMM algorithm (CHGder, D1EAlg=3).
                        Cavity 1st derivative terms included.
 Solvent              : Water, Eps=  78.355300 Eps(inf)=   1.777849
 ------------------------------------------------------------------------------
 Spheres list:
 ISph  on   Nord    Re0     Alpha      Xe            Ye            Ze
    1  Pt      1    1.377   1.100      0.000000      0.000000      0.000000
    2  Br      2    2.095   1.100      0.000000      0.000000      2.504789
    3  Br      3    2.095   1.100      0.000000      2.504789      0.000000
    4  Br      4    2.095   1.100      2.504789      0.000000      0.000000
    5  Br      5    2.095   1.100      0.000000      0.000000     -2.504789
    6  Br      6    2.095   1.100      0.000000     -2.504789      0.000000
    7  Br      7    2.095   1.100     -2.504789      0.000000      0.000000
 ------------------------------------------------------------------------------
 One-electron integrals computed using PRISM.
  48 Symmetry operations used in ECPInt.
 ECPInt:  NShTT=    3240 NPrTT=   19557 LenC2=    2761 LenP2D=   10875.
 LDataN:  DoStor=T MaxTD1= 6 Len=  172
 NBasis=   214 RedAO= T  NBF=    52    19    19    19     9    32    32    32
 NBsUse=   214 1.00D-06 NBFU=    52    19    19    19     9    32    32    32
 Defaulting to unpruned grid for atomic number  78.
 Harris functional with IExCor=  402 diagonalized for initial guess.
 ExpMin= 2.90D-02 ExpMax= 1.13D+05 ExpMxC= 1.70D+04 IAcc=3 IRadAn=         0 AccDes= 0.00D+00
 HarFok:  IExCor=  402 AccDes= 0.00D+00 IRadAn=         0 IDoV= 1
 ScaDFX=  1.000000  1.000000  1.000000  1.000000
 Defaulting to unpruned grid for atomic number  78.
 Defaulting to unpruned grid for atomic number  78.
 Defaulting to unpruned grid for atomic number  78.
 Defaulting to unpruned grid for atomic number  78.
 Defaulting to unpruned grid for atomic number  78.
 Defaulting to unpruned grid for atomic number  78.
 Defaulting to unpruned grid for atomic number  78.
 Defaulting to unpruned grid for atomic number  78.
 Defaulting to unpruned grid for atomic number  78.
 Defaulting to unpruned grid for atomic number  78.
 Defaulting to unpruned grid for atomic number  78.
 Defaulting to unpruned grid for atomic number  78.
 Defaulting to unpruned grid for atomic number  78.
 Defaulting to unpruned grid for atomic number  78.
 Defaulting to unpruned grid for atomic number  78.
 Defaulting to unpruned grid for atomic number  78.
 Defaulting to unpruned grid for atomic number  78.
 Defaulting to unpruned grid for atomic number  78.
 Defaulting to unpruned grid for atomic number  78.
 Defaulting to unpruned grid for atomic number  78.
 Defaulting to unpruned grid for atomic number  78.
 Defaulting to unpruned grid for atomic number  78.
 Defaulting to unpruned grid for atomic number  78.
 Defaulting to unpruned grid for atomic number  78.
 FoFCou: FMM=F IPFlag=           0 FMFlag=      100000 FMFlg1=           0
         NFxFlg=           0 DoJE=T BraDBF=F KetDBF=T FulRan=T
         Omega=  0.000000  0.000000  1.000000  0.000000  0.000000 ICntrl=     500 IOpCl=  0
         NMat0=    1 NMatS0=    1 NMatT0=    0 NMatD0=    1 NMtDS0=    0 NMtDT0=    0
         I1Cent=           4 NGrid=           0.
 Petite list used in FoFCou.
 Initial guess orbital symmetries:
       Occupied  (A1G) (T1U) (T1U) (T1U) (EG) (EG) (A1G) (T1U)
                 (T1U) (T1U) (EG) (EG) (T1U) (T1U) (T1U) (EG) (EG)
                 (T1G) (T1G) (T1G) (A1G) (T1U) (T1U) (T1U) (T2U)
                 (T2U) (T2U) (T2G) (T2G) (T2G) (T1U) (T1U) (T1U)
                 (A1G) (EG) (EG) (T1U) (T1U) (T1U) (EG) (EG) (A1G)
                 (T1G) (T1G) (T1G) (T1U) (T1U) (T1U) (T2U) (T2U)
                 (T2U) (T2G) (T2G) (T2G) (A1G) (T1U) (T1U) (T1U)
                 (EG) (EG) (T2G) (T2G) (T2G) (T1U) (T1U) (T1U)
                 (T2U) (T2U) (T2U) (T1G) (T1G) (T1G) (EG) (EG)
                 (T2U) (T2U) (T2U) (A2U) (A2G) (T2G) (T2G) (T2G)
                 (EU) (EU) (A1G) (T1U) (T1U) (T1U) (A1G) (EG) (EG)
                 (T1U) (T1U) (T1U) (A1G) (T2G) (T2G) (T2G) (EG)
                 (EG) (T1U) (T1U) (T1U) (T2U) (T2U) (T2U) (T1G)
                 (T1G) (T1G) (T1U) (T1U) (T1U) (T1U) (T1U) (T1U)
       Virtual   (T2G) (T2G) (T2G) (A1G) (EG) (EG) (T1U) (T1U)
                 (T1U) (EG) (EG) (A1G) (T2U) (T2U) (T2U) (T1U)
                 (T1U) (T1U) (A2U) (EG) (EG) (T2G) (T2G) (T2G)
                 (T1G) (T1G) (T1G) (T2U) (T2U) (T2U) (T1U) (T1U)
                 (T1U) (EU) (EU) (A2G) (T2G) (T2G) (T2G) (A1G)
                 (T1U) (T1U) (T1U) (T2G) (T2G) (T2G) (EG) (EG)
                 (T2U) (T2U) (T2U) (T1G) (T1G) (T1G) (T1U) (T1U)
                 (T1U) (EG) (EG) (T1U) (T1U) (T1U) (T2G) (T2G)
                 (T2G) (A1G) (EG) (EG) (T2U) (T2U) (T2U) (A2U)
                 (T2G) (T2G) (T2G) (EU) (EU) (EG) (EG) (A2G) (T2U)
                 (T2U) (T2U) (T1U) (T1U) (T1U) (T1G) (T1G) (T1G)
                 (A1G) (T2G) (T2G) (T2G) (T1U) (T1U) (T1U) (EG)
                 (EG) (A1G)
 The electronic state of the initial guess is 1-A1G.
 Requested convergence on RMS density matrix=1.00D-08 within 128 cycles.
 Requested convergence on MAX density matrix=1.00D-06.
 Requested convergence on             energy=1.00D-06.
 No special actions if energy rises.
 Keep R1 ints in memory in canonical form, NReq=384774274.
 Defaulting to unpruned grid for atomic number  78.
 Defaulting to unpruned grid for atomic number  78.
 Defaulting to unpruned grid for atomic number  78.
 Defaulting to unpruned grid for atomic number  78.
 Defaulting to unpruned grid for atomic number  78.
 Defaulting to unpruned grid for atomic number  78.
 Defaulting to unpruned grid for atomic number  78.
 Defaulting to unpruned grid for atomic number  78.
 Defaulting to unpruned grid for atomic number  78.
 Defaulting to unpruned grid for atomic number  78.
 Defaulting to unpruned grid for atomic number  78.
 Defaulting to unpruned grid for atomic number  78.
 Defaulting to unpruned grid for atomic number  78.
 Defaulting to unpruned grid for atomic number  78.
 Defaulting to unpruned grid for atomic number  78.
 Defaulting to unpruned grid for atomic number  78.
 Defaulting to unpruned grid for atomic number  78.
 Defaulting to unpruned grid for atomic number  78.
 Defaulting to unpruned grid for atomic number  78.
 Defaulting to unpruned grid for atomic number  78.
 Defaulting to unpruned grid for atomic number  78.
 Defaulting to unpruned grid for atomic number  78.
 Defaulting to unpruned grid for atomic number  78.
 Defaulting to unpruned grid for atomic number  78.

 CheckU: Warning! The PCM matrix U/Ut may be ill-conditioned!
 CheckU: Symmetric=F PositiveDiag=F BigOffDiag=T (NBig=   552) MaxAbsOnDiag=T
 Density matrix breaks symmetry, PCut= 1.00D-04
 Density has only Abelian symmetry.
 EnCoef did   100 forward-backward iterations
 Density matrix breaks symmetry, PCut= 1.00D-04
 Density has only Abelian symmetry.
 EnCoef did   100 forward-backward iterations
 Density matrix breaks symmetry, PCut= 1.00D-04
 Density has only Abelian symmetry.
 EnCoef did     6 forward-backward iterations
 Density matrix breaks symmetry, PCut= 1.00D-04
 Density has only Abelian symmetry.
 EnCoef did     3 forward-backward iterations
 Density matrix breaks symmetry, PCut= 1.00D-04
 Density has only Abelian symmetry.
 EnCoef did     1 forward-backward iterations
 Density matrix breaks symmetry, PCut= 1.00D-04
 Density has only Abelian symmetry.
 Density matrix breaks symmetry, PCut= 1.00D-04
 Density has only Abelian symmetry.
 Density matrix breaks symmetry, PCut= 1.00D-04
 Density has only Abelian symmetry.
 Density matrix breaks symmetry, PCut= 1.00D-04
 Density has only Abelian symmetry.
 Density matrix breaks symmetry, PCut= 1.00D-04
 Density has only Abelian symmetry.
 Density matrix breaks symmetry, PCut= 1.00D-04
 Density has only Abelian symmetry.
 Error on total polarization charges =  0.03064
 SCF Done:  E(RB3LYP) =  -15562.8484133     A.U. after   16 cycles
             Convg  =    0.3369D-08             -V/T =  2.0065

 **********************************************************************

            Population analysis using the SCF density.

 **********************************************************************

 Orbital symmetries:
       Occupied  (A1G) (T1U) (T1U) (T1U) (EG) (EG) (A1G) (T1U)
                 (T1U) (T1U) (EG) (EG) (T1U) (T1U) (T1U) (EG) (EG)
                 (A1G) (T1G) (T1G) (T1G) (T1U) (T1U) (T1U) (T2U)
                 (T2U) (T2U) (T2G) (T2G) (T2G) (T1U) (T1U) (T1U)
                 (A1G) (EG) (EG) (T1U) (T1U) (T1U) (EG) (EG) (A1G)
                 (T1G) (T1G) (T1G) (T1U) (T1U) (T1U) (T2U) (T2U)
                 (T2U) (T2G) (T2G) (T2G) (A1G) (T1U) (T1U) (T1U)
                 (A1G) (EG) (EG) (T2G) (T2G) (T2G) (T1U) (T1U)
                 (T1U) (T2U) (T2U) (T2U) (T1G) (T1G) (T1G) (T1G)
                 (T1G) (T2U) (T2U) (T2U) (T1G) (EU) (EU) (T2G)
                 (T2G) (T2G) (A2U) (T1U) (T1U) (T1U) (A1G) (EG)
                 (EG) (T1U) (T1U) (T1U) (EG) (EG) (A1G) (T2G) (T2G)
                 (T2G) (T1U) (T1U) (T1U) (T2U) (T2U) (T2U) (T1U)
                 (T1U) (T1U) (T2G) (T2G) (T2G) (T1G) (T1G) (T1G)
       Virtual   (EG) (EG) (T1U) (T1U) (T1U) (A1G) (T1U) (T1U)
                 (T1U) (A1G) (T2G) (T2G) (T2G) (EG) (EG) (EG) (EG)
                 (T1U) (T1U) (T1U) (T1U) (T1U) (T1U) (T2U) (T2U)
                 (T2U) (EG) (EG) (T1G) (T1G) (T1G) (T2U) (T2U)
                 (T2U) (A2U) (T2G) (T2G) (T2G) (A1G) (EU) (EU)
                 (A2G) (T2G) (T2G) (T2G) (T1U) (T1U) (T1U) (T2U)
                 (T2U) (T2U) (T1G) (T1G) (T1G) (T1U) (T1U) (T1U)
                 (A1G) (EG) (EG) (T2G) (T2G) (T2G) (T1U) (T1U)
                 (T1U) (EG) (EG) (T2U) (T2U) (T2U) (A2U) (T2G)
                 (T2G) (T2G) (EU) (EU) (EG) (EG) (T1U) (T1U) (T1U)
                 (A2G) (T2U) (T2U) (T2U) (T1G) (T1G) (T1G) (A1G)
                 (T2G) (T2G) (T2G) (T1U) (T1U) (T1U) (EG) (EG)
                 (A1G)
 The electronic state is 1-A1G.
 Alpha  occ. eigenvalues -- -482.68411-482.68409-482.68409-482.68409-482.68407
 Alpha  occ. eigenvalues -- -482.68407 -62.36470 -62.36469 -62.36469 -62.36469
 Alpha  occ. eigenvalues --  -62.36467 -62.36467 -56.19661 -56.19661 -56.19661
 Alpha  occ. eigenvalues --  -56.19661 -56.19661 -56.19659 -56.19385 -56.19385
 Alpha  occ. eigenvalues --  -56.19385 -56.19385 -56.19385 -56.19385 -56.19383
 Alpha  occ. eigenvalues --  -56.19383 -56.19383 -56.19382 -56.19382 -56.19382
 Alpha  occ. eigenvalues --   -8.58142  -8.58142  -8.58142  -8.58141  -8.58141
 Alpha  occ. eigenvalues --   -8.58141  -6.41301  -6.41301  -6.41301  -6.41301
 Alpha  occ. eigenvalues --   -6.41301  -6.41300  -6.40290  -6.40290  -6.40290
 Alpha  occ. eigenvalues --   -6.40290  -6.40290  -6.40290  -6.40290  -6.40290
 Alpha  occ. eigenvalues --   -6.40290  -6.40289  -6.40289  -6.40289  -3.93366
 Alpha  occ. eigenvalues --   -2.52751  -2.52751  -2.52751  -2.52750  -2.52750
 Alpha  occ. eigenvalues --   -2.52750  -2.52464  -2.52464  -2.52464  -2.52463
 Alpha  occ. eigenvalues --   -2.52463  -2.52463  -2.52463  -2.52463  -2.52463
 Alpha  occ. eigenvalues --   -2.52463  -2.52463  -2.52463  -2.51676  -2.51676
 Alpha  occ. eigenvalues --   -2.51676  -2.51676  -2.51676  -2.51676  -2.51665
 Alpha  occ. eigenvalues --   -2.51665  -2.51665  -2.51665  -2.51665  -2.51665
 Alpha  occ. eigenvalues --   -2.14366  -2.14366  -2.14366  -0.67108  -0.64990
 Alpha  occ. eigenvalues --   -0.64990  -0.64882  -0.64882  -0.64882  -0.32348
 Alpha  occ. eigenvalues --   -0.32348  -0.31698  -0.29252  -0.29252  -0.29252
 Alpha  occ. eigenvalues --   -0.23839  -0.23839  -0.23839  -0.19051  -0.19051
 Alpha  occ. eigenvalues --   -0.19051  -0.18928  -0.18928  -0.18928  -0.18414
 Alpha  occ. eigenvalues --   -0.18414  -0.18414  -0.16928  -0.16928  -0.16928
 Alpha virt. eigenvalues --   -0.04665  -0.04665   0.07126   0.07126   0.07126
 Alpha virt. eigenvalues --    0.14062   0.29746   0.29746   0.29746   0.38771
 Alpha virt. eigenvalues --    0.42923   0.42923   0.42923   0.44438   0.44438
 Alpha virt. eigenvalues --    0.53680   0.53680   0.57067   0.57067   0.57067
 Alpha virt. eigenvalues --    0.59367   0.59367   0.59367   0.59511   0.59511
 Alpha virt. eigenvalues --    0.59511   0.61321   0.61321   0.61494   0.61494
 Alpha virt. eigenvalues --    0.61494   0.61803   0.61803   0.61803   0.62858
 Alpha virt. eigenvalues --    0.63009   0.63009   0.63009   0.64249   0.64952
 Alpha virt. eigenvalues --    0.64952   0.66176   0.66428   0.66428   0.66428
 Alpha virt. eigenvalues --    0.70420   0.70420   0.70420   0.80171   0.80171
 Alpha virt. eigenvalues --    0.80171   0.90479   0.90479   0.90479   0.97093
 Alpha virt. eigenvalues --    0.97093   0.97093   1.04737   1.04887   1.04887
 Alpha virt. eigenvalues --    1.11021   1.11021   1.11021   1.18764   1.18764
 Alpha virt. eigenvalues --    1.18764   1.33303   1.33303   3.48068   3.48068
 Alpha virt. eigenvalues --    3.48068   3.50130   3.51515   3.51515   3.51515
 Alpha virt. eigenvalues --    3.52060   3.52060   3.52948   3.52948   3.53672
 Alpha virt. eigenvalues --    3.53672   3.53672   3.53788   3.54531   3.54531
 Alpha virt. eigenvalues --    3.54531   3.55581   3.55581   3.55581   3.67913
 Alpha virt. eigenvalues --    3.75322   3.75322   3.75322   3.81041   3.81041
 Alpha virt. eigenvalues --    3.81041   3.93637   3.93637  11.49724
          Condensed to atoms (all electrons):
              1          2          3          4          5          6
     1  Pt  16.997764   0.173039   0.173039   0.173039   0.173039   0.173039
     2  Br   0.173039  35.202068  -0.011042  -0.011042  -0.003604  -0.011042
     3  Br   0.173039  -0.011042  35.202068  -0.011042  -0.011042  -0.003604
     4  Br   0.173039  -0.011042  -0.011042  35.202068  -0.011042  -0.011042
     5  Br   0.173039  -0.003604  -0.011042  -0.011042  35.202068  -0.011042
     6  Br   0.173039  -0.011042  -0.003604  -0.011042  -0.011042  35.202068
     7  Br   0.173039  -0.011042  -0.011042  -0.003604  -0.011042  -0.011042
              7
     1  Pt   0.173039
     2  Br  -0.011042
     3  Br  -0.011042
     4  Br  -0.003604
     5  Br  -0.011042
     6  Br  -0.011042
     7  Br  35.202068
 Mulliken atomic charges:
              1
     1  Pt  -0.036000
     2  Br  -0.327333
     3  Br  -0.327333
     4  Br  -0.327333
     5  Br  -0.327333
     6  Br  -0.327333
     7  Br  -0.327333
 Sum of Mulliken atomic charges =  -2.00000
 Mulliken charges with hydrogens summed into heavy atoms:
              1
     1  Pt  -0.036000
     2  Br  -0.327333
     3  Br  -0.327333
     4  Br  -0.327333
     5  Br  -0.327333
     6  Br  -0.327333
     7  Br  -0.327333
 Sum of Mulliken charges with hydrogens summed into heavy atoms =  -2.00000
 Electronic spatial extent (au):  <R**2>=           5103.2773
 Charge=             -2.0000 electrons
 Dipole moment (field-independent basis, Debye):
    X=              0.0000    Y=              0.0000    Z=              0.0000  Tot=              0.0000
 Quadrupole moment (field-independent basis, Debye-Ang):
   XX=           -178.5670   YY=           -178.5670   ZZ=           -178.5670
   XY=              0.0000   XZ=              0.0000   YZ=              0.0000
 Traceless Quadrupole moment (field-independent basis, Debye-Ang):
   XX=              0.0000   YY=              0.0000   ZZ=              0.0000
   XY=              0.0000   XZ=              0.0000   YZ=              0.0000
 Octapole moment (field-independent basis, Debye-Ang**2):
  XXX=              0.0000  YYY=              0.0000  ZZZ=              0.0000  XYY=              0.0000
  XXY=              0.0000  XXZ=              0.0000  XZZ=              0.0000  YZZ=              0.0000
  YYZ=              0.0000  XYZ=              0.0000
 Hexadecapole moment (field-independent basis, Debye-Ang**3):
 XXXX=          -1923.7056 YYYY=          -1923.7056 ZZZZ=          -1923.7056 XXXY=              0.0000
 XXXZ=              0.0000 YYYX=              0.0000 YYYZ=              0.0000 ZZZX=              0.0000
 ZZZY=              0.0000 XXYY=           -585.6694 XXZZ=           -585.6694 YYZZ=           -585.6694
 XXYZ=              0.0000 YYXZ=              0.0000 ZZXY=              0.0000
 N-N= 3.382787700326D+03 E-N=-4.398518989046D+04  KE= 1.546234295457D+04
 Symmetry AG   KE= 5.593748017208D+03
 Symmetry B1G  KE= 7.129526678957D+02
 Symmetry B2G  KE= 7.129526678958D+02
 Symmetry B3G  KE= 7.129526678957D+02
 Symmetry AU   KE= 1.286767268902D+02
 Symmetry B1U  KE= 2.533686735594D+03
 Symmetry B2U  KE= 2.533686735594D+03
 Symmetry B3U  KE= 2.533686735594D+03
  48 Symmetry operations used in ECPInt.
 ECPInt:  NShTT=    3240 NPrTT=   19557 LenC2=    2761 LenP2D=   10875.
 LDataN:  DoStor=T MaxTD1= 7 Len=  274
 D1PCM: PCM CHGder 1st derivatives, ID1Alg=3 FixD1E=F DoIter=F DoCFld=F I1PDM=0.
 Calling FoFJK, ICntrl=      2127 FMM=F ISym2X=1 I1Cent= 0 IOpClX= 0 NMat=1 NMatS=1 NMatT=0.
 Defaulting to unpruned grid for atomic number  78.
 Defaulting to unpruned grid for atomic number  78.
 Defaulting to unpruned grid for atomic number  78.
 Defaulting to unpruned grid for atomic number  78.
 Defaulting to unpruned grid for atomic number  78.
 Defaulting to unpruned grid for atomic number  78.
 Defaulting to unpruned grid for atomic number  78.
 Defaulting to unpruned grid for atomic number  78.
 Defaulting to unpruned grid for atomic number  78.
 Defaulting to unpruned grid for atomic number  78.
 Defaulting to unpruned grid for atomic number  78.
 Defaulting to unpruned grid for atomic number  78.
 Defaulting to unpruned grid for atomic number  78.
 Defaulting to unpruned grid for atomic number  78.
 Defaulting to unpruned grid for atomic number  78.
 Defaulting to unpruned grid for atomic number  78.
 Defaulting to unpruned grid for atomic number  78.
 Defaulting to unpruned grid for atomic number  78.
 Defaulting to unpruned grid for atomic number  78.
 Defaulting to unpruned grid for atomic number  78.
 Defaulting to unpruned grid for atomic number  78.
 Defaulting to unpruned grid for atomic number  78.
 Defaulting to unpruned grid for atomic number  78.
 Defaulting to unpruned grid for atomic number  78.
 ***** Axes restored to original set *****
 -------------------------------------------------------------------
 Center     Atomic                   Forces (Hartrees/Bohr)
 Number     Number              X              Y              Z
 -------------------------------------------------------------------
      1       78           0.000000000    0.000000000    0.000000000
      2       35           0.000000000    0.000000000  131.090272394
      3       35           0.000000000  131.090272394    0.000000000
      4       35         131.090272394    0.000000000    0.000000000
      5       35           0.000000000    0.000000000 -131.090272394
      6       35           0.000000000 -131.090272394    0.000000000
      7       35        -131.090272394    0.000000000    0.000000000
 -------------------------------------------------------------------
 Cartesian Forces:  Max   131.090272394 RMS    70.070698005

 GradGradGradGradGradGradGradGradGradGradGradGradGradGradGradGradGradGrad
 Berny optimization.
 Search for a local minimum.
 Step number   1 out of a maximum of   31
 All quantities printed in internal units (Hartrees-Bohrs-Radians)
 Second derivative matrix not updated -- first step.
     Eigenvalues ---    0.04463   0.04463   0.04463   0.04463   0.04463
     Eigenvalues ---    0.04463   0.08019   0.08019   0.08019   0.16005
     Eigenvalues ---    0.16005   0.16005   0.61699   0.61699   0.61699
 RFO could not converge Lambda in  999 iterations.
 ClnCor:  largest displacement from symmetrization is 0.00D+00 for atom     0.
 Linear search not attempted -- first point.
 Steepest descent instead of Quadratic search.
 Maximum step size (   0.300) exceeded in Quadratic search.
    -- Step size scaled by   0.002
 ClnCor:  largest displacement from symmetrization is 5.18D-14 for atom     7.
 TrRot=  0.000000  0.000000  0.000000  0.000000  0.000000  0.000000
 Variable       Old X    -DE/DX   Delta X   Delta X   Delta X     New X
                                 (Linear)    (Quad)   (Total)
    X1        0.00000   0.00000   0.00000   0.00000   0.00000   0.00000
    Y1        0.00000   0.00000   0.00000   0.00000   0.00000   0.00000
    Z1        0.00000   0.00000   0.00000   0.00000   0.00000   0.00000
    X2        0.00000   0.00000   0.00000   0.00000   0.00000   0.00000
    Y2        0.00000   0.00000   0.00000   0.00000   0.00000   0.00000
    Z2        4.73337 131.09027   0.00000   0.12247   0.12247   4.85584
    X3        0.00000   0.00000   0.00000   0.00000   0.00000   0.00000
    Y3        4.73337 131.09027   0.00000   0.12247   0.12247   4.85584
    Z3        0.00000   0.00000   0.00000   0.00000   0.00000   0.00000
    X4        4.73337 131.09027   0.00000   0.12247   0.12247   4.85584
    Y4        0.00000   0.00000   0.00000   0.00000   0.00000   0.00000
    Z4        0.00000   0.00000   0.00000   0.00000   0.00000   0.00000
    X5        0.00000   0.00000   0.00000   0.00000   0.00000   0.00000
    Y5        0.00000   0.00000   0.00000   0.00000   0.00000   0.00000
    Z5       -4.73337-131.09027   0.00000  -0.12247  -0.12247  -4.85584
    X6        0.00000   0.00000   0.00000   0.00000   0.00000   0.00000
    Y6       -4.73337-131.09027   0.00000  -0.12247  -0.12247  -4.85584
    Z6        0.00000   0.00000   0.00000   0.00000   0.00000   0.00000
    X7       -4.73337-131.09027   0.00000  -0.12247  -0.12247  -4.85584
    Y7        0.00000   0.00000   0.00000   0.00000   0.00000   0.00000
    Z7        0.00000   0.00000   0.00000   0.00000   0.00000   0.00000
         Item               Value     Threshold  Converged?
 Maximum Force            ********     0.002500     NO 
 RMS     Force            ********     0.001667     NO 
 Maximum Displacement     0.122474     0.010000     NO 
 RMS     Displacement     0.065465     0.006667     NO 
 Predicted change in Energy=-9.632408D+01
 GradGradGradGradGradGradGradGradGradGradGradGradGradGradGradGradGradGrad

                          Input orientation:                          
 ---------------------------------------------------------------------
 Center     Atomic      Atomic             Coordinates (Angstroms)
 Number     Number       Type             X           Y           Z
 ---------------------------------------------------------------------
      1         78           0        0.000000    0.000000    0.000000
      2         35           0        0.000000    0.000000    2.569600
      3         35           0        0.000000    2.569600    0.000000
      4         35           0        2.569600    0.000000    0.000000
      5         35           0        0.000000    0.000000   -2.569600
      6         35           0        0.000000   -2.569600    0.000000
      7         35           0       -2.569600    0.000000    0.000000
 ---------------------------------------------------------------------
                    Distance matrix (angstroms):
                    1          2          3          4          5
     1  Pt   0.000000
     2  Br   2.569600   0.000000
     3  Br   2.569600   3.633963   0.000000
     4  Br   2.569600   3.633963   3.633963   0.000000
     5  Br   2.569600   5.139199   3.633963   3.633963   0.000000
     6  Br   2.569600   3.633963   5.139199   3.633963   3.633963
     7  Br   2.569600   3.633963   3.633963   5.139199   3.633963
                    6          7
     6  Br   0.000000
     7  Br   3.633963   0.000000
 Stoichiometry    Br6Pt(2-)
 Framework group  OH[O(Pt),3C4(Br.Br)]
 Deg. of freedom     1
 Full point group                 OH      NOp  48
 Largest Abelian subgroup         D2H     NOp   8
 Largest concise Abelian subgroup D2H     NOp   8
                         Standard orientation:                         
 ---------------------------------------------------------------------
 Center     Atomic      Atomic             Coordinates (Angstroms)
 Number     Number       Type             X           Y           Z
 ---------------------------------------------------------------------
      1         78           0        0.000000    0.000000    0.000000
      2         35           0        0.000000    0.000000    2.569600
      3         35           0        0.000000    2.569600    0.000000
      4         35           0        2.569600    0.000000    0.000000
      5         35           0        0.000000    0.000000   -2.569600
      6         35           0        0.000000   -2.569600    0.000000
      7         35           0       -2.569600    0.000000    0.000000
 ---------------------------------------------------------------------
 Rotational constants (GHZ):      0.2424646      0.2424646      0.2424646
 Basis read from rwf:  (5D, 7F)
 Pseudo-potential data read from rwf file.
 There are    52 symmetry adapted basis functions of AG  symmetry.
 There are    19 symmetry adapted basis functions of B1G symmetry.
 There are    19 symmetry adapted basis functions of B2G symmetry.
 There are    19 symmetry adapted basis functions of B3G symmetry.
 There are     9 symmetry adapted basis functions of AU  symmetry.
 There are    32 symmetry adapted basis functions of B1U symmetry.
 There are    32 symmetry adapted basis functions of B2U symmetry.
 There are    32 symmetry adapted basis functions of B3U symmetry.
 Integral buffers will be    131072 words long.
 Raffenetti 2 integral format.
 Two-electron integral symmetry is turned on.
   214 basis functions,   523 primitive gaussians,   234 cartesian basis functions
   115 alpha electrons      115 beta electrons
       nuclear repulsion energy      3297.4666821755 Hartrees.
 NAtoms=    7 NActive=    7 NUniq=    2 SFac= 3.00D+00 NAtFMM=   80 NAOKFM=F Big=F
 ------------------------------------------------------------------------------
 Polarizable Continuum Model (PCM)
 =================================
 Model                : PCM.
 Atomic radii         : UFF (Universal Force Field).
 Polarization charges : Total charges.
 Charge compensation  : None.
 Solution method      : Matrix inversion.
 Cavity type          : Scaled VdW (van der Waals Surface) (Alpha=1.100).
 Cavity algorithm     : GePol (No added spheres)
                        Default sphere list used, NSphG=    7.
                        Lebedev-Laikov grids with approx.  5.0 points / Ang**2.
                        Smoothing algorithm: Karplus/York (Gamma=1.0000).
                        Polarization charges: spherical gaussians, with
                                              point-specific exponents (IZeta= 3).
                        Self-potential: point-specific (ISelfS= 7).
                        Self-field    : sphere-specific E.n sum rule (ISelfD= 2).
 1st derivatives      : Analytical E(r).r(x)/FMM algorithm (CHGder, D1EAlg=3).
                        Cavity 1st derivative terms included.
 Solvent              : Water, Eps=  78.355300 Eps(inf)=   1.777849
 ------------------------------------------------------------------------------
 Spheres list:
 ISph  on   Nord    Re0     Alpha      Xe            Ye            Ze
    1  Pt      1    1.377   1.100      0.000000      0.000000      0.000000
    2  Br      2    2.095   1.100      0.000000      0.000000      2.569600
    3  Br      3    2.095   1.100      0.000000      2.569600      0.000000
    4  Br      4    2.095   1.100      2.569600      0.000000      0.000000
    5  Br      5    2.095   1.100      0.000000      0.000000     -2.569600
    6  Br      6    2.095   1.100      0.000000     -2.569600      0.000000
    7  Br      7    2.095   1.100     -2.569600      0.000000      0.000000
 ------------------------------------------------------------------------------
 One-electron integrals computed using PRISM.
  48 Symmetry operations used in ECPInt.
 ECPInt:  NShTT=    3240 NPrTT=   19557 LenC2=    2737 LenP2D=   10731.
 LDataN:  DoStor=T MaxTD1= 6 Len=  172
 NBasis=   214 RedAO= T  NBF=    52    19    19    19     9    32    32    32
 NBsUse=   214 1.00D-06 NBFU=    52    19    19    19     9    32    32    32
 Defaulting to unpruned grid for atomic number  78.
 Initial guess read from the read-write file.
 B after Tr=     0.000000    0.000000    0.000000
         Rot=    1.000000    0.000000    0.000000    0.000000 Ang=   0.00 deg.
 Initial guess orbital symmetries:
       Occupied  (A1G) (T1U) (T1U) (T1U) (EG) (EG) (A1G) (T1U)
                 (T1U) (T1U) (EG) (EG) (T1U) (T1U) (T1U) (EG) (EG)
                 (A1G) (T1G) (T1G) (T1G) (T1U) (T1U) (T1U) (T2U)
                 (T2U) (T2U) (T2G) (T2G) (T2G) (T1U) (T1U) (T1U)
                 (A1G) (EG) (EG) (T1U) (T1U) (T1U) (EG) (EG) (A1G)
                 (T1G) (T1G) (T1G) (T1U) (T1U) (T1U) (T2U) (T2U)
                 (T2U) (T2G) (T2G) (T2G) (A1G) (T1U) (T1U) (T1U)
                 (A1G) (EG) (EG) (T2G) (T2G) (T2G) (T1U) (T1U)
                 (T1U) (T2U) (T2U) (T2U) (T1G) (T1G) (T1G) (T1G)
                 (T1G) (T2U) (T2U) (T2U) (T1G) (EU) (EU) (T2G)
                 (T2G) (T2G) (A2U) (T1U) (T1U) (T1U) (A1G) (EG)
                 (EG) (T1U) (T1U) (T1U) (EG) (EG) (A1G) (T2G) (T2G)
                 (T2G) (T1U) (T1U) (T1U) (T2U) (T2U) (T2U) (T1U)
                 (T1U) (T1U) (T2G) (T2G) (T2G) (T1G) (T1G) (T1G)
       Virtual   (EG) (EG) (T1U) (T1U) (T1U) (A1G) (T1U) (T1U)
                 (T1U) (A1G) (T2G) (T2G) (T2G) (EG) (EG) (EG) (EG)
                 (T1U) (T1U) (T1U) (T1U) (T1U) (T1U) (T2U) (T2U)
                 (T2U) (EG) (EG) (T1G) (T1G) (T1G) (T2U) (T2U)
                 (T2U) (A2U) (T2G) (T2G) (T2G) (A1G) (EU) (EU)
                 (A2G) (T2G) (T2G) (T2G) (T1U) (T1U) (T1U) (T2U)
                 (T2U) (T2U) (T1G) (T1G) (T1G) (T1U) (T1U) (T1U)
                 (A1G) (EG) (EG) (T2G) (T2G) (T2G) (T1U) (T1U)
                 (T1U) (EG) (EG) (T2U) (T2U) (T2U) (A2U) (T2G)
                 (T2G) (T2G) (EU) (EU) (EG) (EG) (T1U) (T1U) (T1U)
                 (A2G) (T2U) (T2U) (T2U) (T1G) (T1G) (T1G) (A1G)
                 (T2G) (T2G) (T2G) (T1U) (T1U) (T1U) (EG) (EG)
                 (A1G)
 Harris functional with IExCor=  402 diagonalized for initial guess.
 ExpMin= 2.90D-02 ExpMax= 1.13D+05 ExpMxC= 1.70D+04 IAcc=3 IRadAn=         0 AccDes= 0.00D+00
 HarFok:  IExCor=  402 AccDes= 0.00D+00 IRadAn=         0 IDoV= 1
 ScaDFX=  1.000000  1.000000  1.000000  1.000000
 Defaulting to unpruned grid for atomic number  78.
 Defaulting to unpruned grid for atomic number  78.
 Defaulting to unpruned grid for atomic number  78.
 Defaulting to unpruned grid for atomic number  78.
 Defaulting to unpruned grid for atomic number  78.
 Defaulting to unpruned grid for atomic number  78.
 Defaulting to unpruned grid for atomic number  78.
 Defaulting to unpruned grid for atomic number  78.
 Defaulting to unpruned grid for atomic number  78.
 Defaulting to unpruned grid for atomic number  78.
 Defaulting to unpruned grid for atomic number  78.
 Defaulting to unpruned grid for atomic number  78.
 Defaulting to unpruned grid for atomic number  78.
 Defaulting to unpruned grid for atomic number  78.
 Defaulting to unpruned grid for atomic number  78.
 Defaulting to unpruned grid for atomic number  78.
 Defaulting to unpruned grid for atomic number  78.
 Defaulting to unpruned grid for atomic number  78.
 Defaulting to unpruned grid for atomic number  78.
 Defaulting to unpruned grid for atomic number  78.
 Defaulting to unpruned grid for atomic number  78.
 Defaulting to unpruned grid for atomic number  78.
 Defaulting to unpruned grid for atomic number  78.
 Defaulting to unpruned grid for atomic number  78.
 FoFCou: FMM=F IPFlag=           0 FMFlag=      100000 FMFlg1=           0
         NFxFlg=           0 DoJE=T BraDBF=F KetDBF=T FulRan=T
         Omega=  0.000000  0.000000  1.000000  0.000000  0.000000 ICntrl=     500 IOpCl=  0
         NMat0=    1 NMatS0=    1 NMatT0=    0 NMatD0=    1 NMtDS0=    0 NMtDT0=    0
         I1Cent=           4 NGrid=           0.
 Petite list used in FoFCou.
 Requested convergence on RMS density matrix=1.00D-08 within 128 cycles.
 Requested convergence on MAX density matrix=1.00D-06.
 Requested convergence on             energy=1.00D-06.
 No special actions if energy rises.
 Keep R1 ints in memory in canonical form, NReq=384952239.
 Defaulting to unpruned grid for atomic number  78.
 Defaulting to unpruned grid for atomic number  78.
 Defaulting to unpruned grid for atomic number  78.
 Defaulting to unpruned grid for atomic number  78.
 Defaulting to unpruned grid for atomic number  78.
 Defaulting to unpruned grid for atomic number  78.
 Defaulting to unpruned grid for atomic number  78.
 Defaulting to unpruned grid for atomic number  78.
 Defaulting to unpruned grid for atomic number  78.
 Defaulting to unpruned grid for atomic number  78.
 Defaulting to unpruned grid for atomic number  78.
 Defaulting to unpruned grid for atomic number  78.
 Defaulting to unpruned grid for atomic number  78.
 Defaulting to unpruned grid for atomic number  78.
 Defaulting to unpruned grid for atomic number  78.
 Defaulting to unpruned grid for atomic number  78.
 Defaulting to unpruned grid for atomic number  78.
 Defaulting to unpruned grid for atomic number  78.
 Defaulting to unpruned grid for atomic number  78.
 Defaulting to unpruned grid for atomic number  78.
 Defaulting to unpruned grid for atomic number  78.
 Defaulting to unpruned grid for atomic number  78.
 Defaulting to unpruned grid for atomic number  78.
 Defaulting to unpruned grid for atomic number  78.
 Error on total polarization charges =  0.02019
 SCF Done:  E(RB3LYP) =  -15562.9036972     A.U. after   10 cycles
             Convg  =    0.3799D-08             -V/T =  2.0065
  48 Symmetry operations used in ECPInt.
 ECPInt:  NShTT=    3240 NPrTT=   19557 LenC2=    2737 LenP2D=   10731.
 LDataN:  DoStor=T MaxTD1= 7 Len=  274
 D1PCM: PCM CHGder 1st derivatives, ID1Alg=3 FixD1E=F DoIter=F DoCFld=F I1PDM=0.
 Calling FoFJK, ICntrl=      2127 FMM=F ISym2X=1 I1Cent= 0 IOpClX= 0 NMat=1 NMatS=1 NMatT=0.
 Defaulting to unpruned grid for atomic number  78.
 Defaulting to unpruned grid for atomic number  78.
 Defaulting to unpruned grid for atomic number  78.
 Defaulting to unpruned grid for atomic number  78.
 Defaulting to unpruned grid for atomic number  78.
 Defaulting to unpruned grid for atomic number  78.
 Defaulting to unpruned grid for atomic number  78.
 Defaulting to unpruned grid for atomic number  78.
 Defaulting to unpruned grid for atomic number  78.
 Defaulting to unpruned grid for atomic number  78.
 Defaulting to unpruned grid for atomic number  78.
 Defaulting to unpruned grid for atomic number  78.
 Defaulting to unpruned grid for atomic number  78.
 Defaulting to unpruned grid for atomic number  78.
 Defaulting to unpruned grid for atomic number  78.
 Defaulting to unpruned grid for atomic number  78.
 Defaulting to unpruned grid for atomic number  78.
 Defaulting to unpruned grid for atomic number  78.
 Defaulting to unpruned grid for atomic number  78.
 Defaulting to unpruned grid for atomic number  78.
 Defaulting to unpruned grid for atomic number  78.
 Defaulting to unpruned grid for atomic number  78.
 Defaulting to unpruned grid for atomic number  78.
 Defaulting to unpruned grid for atomic number  78.
 ***** Axes restored to original set *****
 -------------------------------------------------------------------
 Center     Atomic                   Forces (Hartrees/Bohr)
 Number     Number              X              Y              Z
 -------------------------------------------------------------------
      1       78           0.000000000    0.000000000    0.000000000
      2       35           0.000000000    0.000000000   -0.000212917
      3       35           0.000000000   -0.000212917    0.000000000
      4       35          -0.000212917    0.000000000    0.000000000
      5       35           0.000000000    0.000000000    0.000212917
      6       35           0.000000000    0.000212917    0.000000000
      7       35           0.000212917    0.000000000    0.000000000
 -------------------------------------------------------------------
 Cartesian Forces:  Max     0.000212917 RMS     0.000113809

 GradGradGradGradGradGradGradGradGradGradGradGradGradGradGradGradGradGrad
 Berny optimization.
 Search for a local minimum.
 Step number   2 out of a maximum of   31
 All quantities printed in internal units (Hartrees-Bohrs-Radians)
 Update second derivatives using D2CorN and points    1    2
 DE= -5.53D-02 DEPred=-9.63D+01 R= 5.74D-04
 Trust test= 5.74D-04 RLast= 3.00D-01 DXMaxT set to 1.50D-01
 Linear search step of   0.200 exceeds DXMaxT=   0.150 but not scaled.
 Quartic linear search produced a step of -0.66628.
 ClnCor:  largest displacement from symmetrization is 1.02D-15 for atom     5.
 TrRot=  0.000000  0.000000  0.000000  0.000000  0.000000  0.000000
 Variable       Old X    -DE/DX   Delta X   Delta X   Delta X     New X
                                 (Linear)    (Quad)   (Total)
    X1        0.00000   0.00000   0.00000   0.00000   0.00000   0.00000
    Y1        0.00000   0.00000   0.00000   0.00000   0.00000   0.00000
    Z1        0.00000   0.00000   0.00000   0.00000   0.00000   0.00000
    X2        0.00000   0.00000   0.00000   0.00000   0.00000   0.00000
    Y2        0.00000   0.00000   0.00000   0.00000   0.00000   0.00000
    Z2        4.85584  -0.00021  -0.08160   0.00000  -0.08160   4.77424
    X3        0.00000   0.00000   0.00000   0.00000   0.00000   0.00000
    Y3        4.85584  -0.00021  -0.08160   0.00000  -0.08160   4.77424
    Z3        0.00000   0.00000   0.00000   0.00000   0.00000   0.00000
    X4        4.85584  -0.00021  -0.08160   0.00000  -0.08160   4.77424
    Y4        0.00000   0.00000   0.00000   0.00000   0.00000   0.00000
    Z4        0.00000   0.00000   0.00000   0.00000   0.00000   0.00000
    X5        0.00000   0.00000   0.00000   0.00000   0.00000   0.00000
    Y5        0.00000   0.00000   0.00000   0.00000   0.00000   0.00000
    Z5       -4.85584   0.00021   0.08160   0.00000   0.08160  -4.77424
    X6        0.00000   0.00000   0.00000   0.00000   0.00000   0.00000
    Y6       -4.85584   0.00021   0.08160   0.00000   0.08160  -4.77424
    Z6        0.00000   0.00000   0.00000   0.00000   0.00000   0.00000
    X7       -4.85584   0.00021   0.08160   0.00000   0.08160  -4.77424
    Y7        0.00000   0.00000   0.00000   0.00000   0.00000   0.00000
    Z7        0.00000   0.00000   0.00000   0.00000   0.00000   0.00000
         Item               Value     Threshold  Converged?
 Maximum Force            0.000213     0.002500     YES
 RMS     Force            0.000114     0.001667     YES
 Maximum Displacement     0.081603     0.010000     NO 
 RMS     Displacement     0.043618     0.006667     NO 
 Predicted change in Energy=-2.138227D+01
 GradGradGradGradGradGradGradGradGradGradGradGradGradGradGradGradGradGrad

                          Input orientation:                          
 ---------------------------------------------------------------------
 Center     Atomic      Atomic             Coordinates (Angstroms)
 Number     Number       Type             X           Y           Z
 ---------------------------------------------------------------------
      1         78           0        0.000000    0.000000    0.000000
      2         35           0        0.000000    0.000000    2.526417
      3         35           0        0.000000    2.526417    0.000000
      4         35           0        2.526417    0.000000    0.000000
      5         35           0        0.000000    0.000000   -2.526417
      6         35           0        0.000000   -2.526417    0.000000
      7         35           0       -2.526417    0.000000    0.000000
 ---------------------------------------------------------------------
                    Distance matrix (angstroms):
                    1          2          3          4          5
     1  Pt   0.000000
     2  Br   2.526417   0.000000
     3  Br   2.526417   3.572894   0.000000
     4  Br   2.526417   3.572894   3.572894   0.000000
     5  Br   2.526417   5.052835   3.572894   3.572894   0.000000
     6  Br   2.526417   3.572894   5.052835   3.572894   3.572894
     7  Br   2.526417   3.572894   3.572894   5.052835   3.572894
                    6          7
     6  Br   0.000000
     7  Br   3.572894   0.000000
 Stoichiometry    Br6Pt(2-)
 Framework group  OH[O(Pt),3C4(Br.Br)]
 Deg. of freedom     1
 Full point group                 OH      NOp  48
 Largest Abelian subgroup         D2H     NOp   8
 Largest concise Abelian subgroup D2H     NOp   8
                         Standard orientation:                         
 ---------------------------------------------------------------------
 Center     Atomic      Atomic             Coordinates (Angstroms)
 Number     Number       Type             X           Y           Z
 ---------------------------------------------------------------------
      1         78           0        0.000000    0.000000    0.000000
      2         35           0        0.000000    0.000000    2.526417
      3         35           0        0.000000    2.526417    0.000000
      4         35           0        2.526417    0.000000    0.000000
      5         35           0        0.000000    0.000000   -2.526417
      6         35           0        0.000000   -2.526417    0.000000
      7         35           0       -2.526417    0.000000    0.000000
 ---------------------------------------------------------------------
 Rotational constants (GHZ):      0.2508240      0.2508240      0.2508240
 Basis read from rwf:  (5D, 7F)
 Pseudo-potential data read from rwf file.
 There are    52 symmetry adapted basis functions of AG  symmetry.
 There are    19 symmetry adapted basis functions of B1G symmetry.
 There are    19 symmetry adapted basis functions of B2G symmetry.
 There are    19 symmetry adapted basis functions of B3G symmetry.
 There are     9 symmetry adapted basis functions of AU  symmetry.
 There are    32 symmetry adapted basis functions of B1U symmetry.
 There are    32 symmetry adapted basis functions of B2U symmetry.
 There are    32 symmetry adapted basis functions of B3U symmetry.
 Integral buffers will be    131072 words long.
 Raffenetti 2 integral format.
 Two-electron integral symmetry is turned on.
   214 basis functions,   523 primitive gaussians,   234 cartesian basis functions
   115 alpha electrons      115 beta electrons
       nuclear repulsion energy      3353.8279868799 Hartrees.
 NAtoms=    7 NActive=    7 NUniq=    2 SFac= 3.00D+00 NAtFMM=   80 NAOKFM=F Big=F
 ------------------------------------------------------------------------------
 Polarizable Continuum Model (PCM)
 =================================
 Model                : PCM.
 Atomic radii         : UFF (Universal Force Field).
 Polarization charges : Total charges.
 Charge compensation  : None.
 Solution method      : Matrix inversion.
 Cavity type          : Scaled VdW (van der Waals Surface) (Alpha=1.100).
 Cavity algorithm     : GePol (No added spheres)
                        Default sphere list used, NSphG=    7.
                        Lebedev-Laikov grids with approx.  5.0 points / Ang**2.
                        Smoothing algorithm: Karplus/York (Gamma=1.0000).
                        Polarization charges: spherical gaussians, with
                                              point-specific exponents (IZeta= 3).
                        Self-potential: point-specific (ISelfS= 7).
                        Self-field    : sphere-specific E.n sum rule (ISelfD= 2).
 1st derivatives      : Analytical E(r).r(x)/FMM algorithm (CHGder, D1EAlg=3).
                        Cavity 1st derivative terms included.
 Solvent              : Water, Eps=  78.355300 Eps(inf)=   1.777849
 ------------------------------------------------------------------------------
 Spheres list:
 ISph  on   Nord    Re0     Alpha      Xe            Ye            Ze
    1  Pt      1    1.377   1.100      0.000000      0.000000      0.000000
    2  Br      2    2.095   1.100      0.000000      0.000000      2.526417
    3  Br      3    2.095   1.100      0.000000      2.526417      0.000000
    4  Br      4    2.095   1.100      2.526417      0.000000      0.000000
    5  Br      5    2.095   1.100      0.000000      0.000000     -2.526417
    6  Br      6    2.095   1.100      0.000000     -2.526417      0.000000
    7  Br      7    2.095   1.100     -2.526417      0.000000      0.000000
 ------------------------------------------------------------------------------
 One-electron integrals computed using PRISM.
  48 Symmetry operations used in ECPInt.
 ECPInt:  NShTT=    3240 NPrTT=   19557 LenC2=    2761 LenP2D=   10839.
 LDataN:  DoStor=T MaxTD1= 6 Len=  172
 NBasis=   214 RedAO= T  NBF=    52    19    19    19     9    32    32    32
 NBsUse=   214 1.00D-06 NBFU=    52    19    19    19     9    32    32    32
 Defaulting to unpruned grid for atomic number  78.
 Initial guess read from the read-write file.
 B after Tr=     0.000000    0.000000    0.000000
         Rot=    1.000000    0.000000    0.000000    0.000000 Ang=   0.00 deg.
 Initial guess orbital symmetries:
       Occupied  (A1G) (T1U) (T1U) (T1U) (EG) (EG) (A1G) (T1U)
                 (T1U) (T1U) (EG) (EG) (T1U) (T1U) (T1U) (EG) (EG)
                 (A1G) (T1G) (T1G) (T1G) (T1U) (T1U) (T1U) (T2U)
                 (T2U) (T2U) (T2G) (T2G) (T2G) (T1U) (T1U) (T1U)
                 (A1G) (EG) (EG) (T1U) (T1U) (T1U) (EG) (EG) (A1G)
                 (T1G) (T1G) (T1G) (T1U) (T1U) (T1U) (T2U) (T2U)
                 (T2U) (T2G) (T2G) (T2G) (A1G) (T1U) (T1U) (T1U)
                 (A1G) (EG) (EG) (T2G) (T2G) (T2G) (T1U) (T1U)
                 (T1U) (T1G) (T1G) (T1G) (T2U) (T2U) (T2U) (EU)
                 (EU) (T2G) (T2G) (T2G) (A2U) (A2G) (T2U) (T2U)
                 (T2U) (EG) (EG) (T1U) (T1U) (T1U) (A1G) (T1U)
                 (T1U) (T1U) (EG) (EG) (A1G) (EG) (EG) (T2G) (T2G)
                 (T2G) (T1U) (T1U) (T1U) (T2U) (T2U) (T2U) (T2G)
                 (T2G) (T2G) (T1U) (T1U) (T1U) (T1G) (T1G) (T1G)
       Virtual   (EG) (EG) (A1G) (T1U) (T1U) (T1U) (T1U) (T1U)
                 (T1U) (A1G) (T2G) (T2G) (T2G) (EG) (EG) (EG) (EG)
                 (T1U) (T1U) (T1U) (T2U) (T2U) (T2U) (T1U) (T1U)
                 (T1U) (EG) (EG) (T1G) (T1G) (T1G) (T2U) (T2U)
                 (T2U) (A2U) (T2G) (T2G) (T2G) (EU) (EU) (A1G)
                 (A2G) (T2G) (T2G) (T2G) (T1U) (T1U) (T1U) (T2U)
                 (T2U) (T2U) (T1G) (T1G) (T1G) (T1U) (T1U) (T1U)
                 (EG) (EG) (A1G) (T2G) (T2G) (T2G) (T1U) (T1U)
                 (T1U) (EG) (EG) (T2U) (T2U) (T2U) (A2U) (T2G)
                 (T2G) (T2G) (EU) (EU) (EG) (EG) (T1U) (T1U) (T1U)
                 (A2G) (T2U) (T2U) (T2U) (T1G) (T1G) (T1G) (A1G)
                 (T2G) (T2G) (T2G) (T1U) (T1U) (T1U) (EG) (EG)
                 (A1G)
 Harris functional with IExCor=  402 diagonalized for initial guess.
 ExpMin= 2.90D-02 ExpMax= 1.13D+05 ExpMxC= 1.70D+04 IAcc=3 IRadAn=         0 AccDes= 0.00D+00
 HarFok:  IExCor=  402 AccDes= 0.00D+00 IRadAn=         0 IDoV= 1
 ScaDFX=  1.000000  1.000000  1.000000  1.000000
 Defaulting to unpruned grid for atomic number  78.
 Defaulting to unpruned grid for atomic number  78.
 Defaulting to unpruned grid for atomic number  78.
 Defaulting to unpruned grid for atomic number  78.
 Defaulting to unpruned grid for atomic number  78.
 Defaulting to unpruned grid for atomic number  78.
 Defaulting to unpruned grid for atomic number  78.
 Defaulting to unpruned grid for atomic number  78.
 Defaulting to unpruned grid for atomic number  78.
 Defaulting to unpruned grid for atomic number  78.
 Defaulting to unpruned grid for atomic number  78.
 Defaulting to unpruned grid for atomic number  78.
 Defaulting to unpruned grid for atomic number  78.
 Defaulting to unpruned grid for atomic number  78.
 Defaulting to unpruned grid for atomic number  78.
 Defaulting to unpruned grid for atomic number  78.
 Defaulting to unpruned grid for atomic number  78.
 Defaulting to unpruned grid for atomic number  78.
 Defaulting to unpruned grid for atomic number  78.
 Defaulting to unpruned grid for atomic number  78.
 Defaulting to unpruned grid for atomic number  78.
 Defaulting to unpruned grid for atomic number  78.
 Defaulting to unpruned grid for atomic number  78.
 Defaulting to unpruned grid for atomic number  78.
 FoFCou: FMM=F IPFlag=           0 FMFlag=      100000 FMFlg1=           0
         NFxFlg=           0 DoJE=T BraDBF=F KetDBF=T FulRan=T
         Omega=  0.000000  0.000000  1.000000  0.000000  0.000000 ICntrl=     500 IOpCl=  0
         NMat0=    1 NMatS0=    1 NMatT0=    0 NMatD0=    1 NMtDS0=    0 NMtDT0=    0
         I1Cent=           4 NGrid=           0.
 Petite list used in FoFCou.
 Requested convergence on RMS density matrix=1.00D-08 within 128 cycles.
 Requested convergence on MAX density matrix=1.00D-06.
 Requested convergence on             energy=1.00D-06.
 No special actions if energy rises.
 Keep R1 ints in memory in canonical form, NReq=384868539.
 Defaulting to unpruned grid for atomic number  78.
 Defaulting to unpruned grid for atomic number  78.
 Defaulting to unpruned grid for atomic number  78.
 Defaulting to unpruned grid for atomic number  78.
 Defaulting to unpruned grid for atomic number  78.
 Defaulting to unpruned grid for atomic number  78.
 Defaulting to unpruned grid for atomic number  78.
 Defaulting to unpruned grid for atomic number  78.
 Defaulting to unpruned grid for atomic number  78.
 Defaulting to unpruned grid for atomic number  78.
 Defaulting to unpruned grid for atomic number  78.
 Defaulting to unpruned grid for atomic number  78.
 Defaulting to unpruned grid for atomic number  78.
 Defaulting to unpruned grid for atomic number  78.
 Defaulting to unpruned grid for atomic number  78.
 Defaulting to unpruned grid for atomic number  78.
 Defaulting to unpruned grid for atomic number  78.
 Defaulting to unpruned grid for atomic number  78.
 Defaulting to unpruned grid for atomic number  78.
 Defaulting to unpruned grid for atomic number  78.
 Defaulting to unpruned grid for atomic number  78.
 Defaulting to unpruned grid for atomic number  78.
 Defaulting to unpruned grid for atomic number  78.
 Defaulting to unpruned grid for atomic number  78.
 Error on total polarization charges =  0.02054
 SCF Done:  E(RB3LYP) =  -15562.9043615     A.U. after    8 cycles
             Convg  =    0.8524D-08             -V/T =  2.0065
  48 Symmetry operations used in ECPInt.
 ECPInt:  NShTT=    3240 NPrTT=   19557 LenC2=    2761 LenP2D=   10839.
 LDataN:  DoStor=T MaxTD1= 7 Len=  274
 D1PCM: PCM CHGder 1st derivatives, ID1Alg=3 FixD1E=F DoIter=F DoCFld=F I1PDM=0.
 Calling FoFJK, ICntrl=      2127 FMM=F ISym2X=1 I1Cent= 0 IOpClX= 0 NMat=1 NMatS=1 NMatT=0.
 Defaulting to unpruned grid for atomic number  78.
 Defaulting to unpruned grid for atomic number  78.
 Defaulting to unpruned grid for atomic number  78.
 Defaulting to unpruned grid for atomic number  78.
 Defaulting to unpruned grid for atomic number  78.
 Defaulting to unpruned grid for atomic number  78.
 Defaulting to unpruned grid for atomic number  78.
 Defaulting to unpruned grid for atomic number  78.
 Defaulting to unpruned grid for atomic number  78.
 Defaulting to unpruned grid for atomic number  78.
 Defaulting to unpruned grid for atomic number  78.
 Defaulting to unpruned grid for atomic number  78.
 Defaulting to unpruned grid for atomic number  78.
 Defaulting to unpruned grid for atomic number  78.
 Defaulting to unpruned grid for atomic number  78.
 Defaulting to unpruned grid for atomic number  78.
 Defaulting to unpruned grid for atomic number  78.
 Defaulting to unpruned grid for atomic number  78.
 Defaulting to unpruned grid for atomic number  78.
 Defaulting to unpruned grid for atomic number  78.
 Defaulting to unpruned grid for atomic number  78.
 Defaulting to unpruned grid for atomic number  78.
 Defaulting to unpruned grid for atomic number  78.
 Defaulting to unpruned grid for atomic number  78.
 ***** Axes restored to original set *****
 -------------------------------------------------------------------
 Center     Atomic                   Forces (Hartrees/Bohr)
 Number     Number              X              Y              Z
 -------------------------------------------------------------------
      1       78           0.000000000    0.000000000    0.000000000
      2       35           0.000000000    0.000000000    0.014486703
      3       35           0.000000000    0.014486703    0.000000000
      4       35           0.014486703    0.000000000    0.000000000
      5       35           0.000000000    0.000000000   -0.014486703
      6       35           0.000000000   -0.014486703    0.000000000
      7       35          -0.014486703    0.000000000    0.000000000
 -------------------------------------------------------------------
 Cartesian Forces:  Max     0.014486703 RMS     0.007743468

 GradGradGradGradGradGradGradGradGradGradGradGradGradGradGradGradGradGrad
 Berny optimization.
 Search for a local minimum.
 Step number   3 out of a maximum of   31
 All quantities printed in internal units (Hartrees-Bohrs-Radians)
 Update second derivatives using D2CorN and points    2    3
     Eigenvalues ---    0.04463   0.04463   0.04463   0.04463   0.04463
     Eigenvalues ---    0.04463   0.08019   0.08019   0.08019   0.16005
     Eigenvalues ---    0.16005   0.18014   0.61699   0.61699   0.61699
 RFO step:  Lambda= 0.00000000D+00 EMin= 4.46333996D-02
 ClnCor:  largest displacement from symmetrization is 2.80D-12 for atom     7.
 Quartic linear search produced a step of -0.28262.
 ClnCor:  largest displacement from symmetrization is 1.08D-15 for atom     2.
 TrRot=  0.000000  0.000000  0.000000  0.000000  0.000000  0.000000
 Variable       Old X    -DE/DX   Delta X   Delta X   Delta X     New X
                                 (Linear)    (Quad)   (Total)
    X1        0.00000   0.00000   0.00000   0.00000   0.00000   0.00000
    Y1        0.00000   0.00000   0.00000   0.00000   0.00000   0.00000
    Z1        0.00000   0.00000   0.00000   0.00000   0.00000   0.00000
    X2        0.00000   0.00000   0.00000   0.00000   0.00000   0.00000
    Y2        0.00000   0.00000   0.00000   0.00000   0.00000   0.00000
    Z2        4.77424   0.01449   0.02306   0.00000   0.02306   4.79730
    X3        0.00000   0.00000   0.00000   0.00000   0.00000   0.00000
    Y3        4.77424   0.01449   0.02306   0.00000   0.02306   4.79730
    Z3        0.00000   0.00000   0.00000   0.00000   0.00000   0.00000
    X4        4.77424   0.01449   0.02306   0.00000   0.02306   4.79730
    Y4        0.00000   0.00000   0.00000   0.00000   0.00000   0.00000
    Z4        0.00000   0.00000   0.00000   0.00000   0.00000   0.00000
    X5        0.00000   0.00000   0.00000   0.00000   0.00000   0.00000
    Y5        0.00000   0.00000   0.00000   0.00000   0.00000   0.00000
    Z5       -4.77424  -0.01449  -0.02306   0.00000  -0.02306  -4.79730
    X6        0.00000   0.00000   0.00000   0.00000   0.00000   0.00000
    Y6       -4.77424  -0.01449  -0.02306   0.00000  -0.02306  -4.79730
    Z6        0.00000   0.00000   0.00000   0.00000   0.00000   0.00000
    X7       -4.77424  -0.01449  -0.02306   0.00000  -0.02306  -4.79730
    Y7        0.00000   0.00000   0.00000   0.00000   0.00000   0.00000
    Z7        0.00000   0.00000   0.00000   0.00000   0.00000   0.00000
         Item               Value     Threshold  Converged?
 Maximum Force            0.014487     0.002500     NO 
 RMS     Force            0.007743     0.001667     NO 
 Maximum Displacement     0.023063     0.010000     NO 
 RMS     Displacement     0.012328     0.006667     NO 
 Predicted change in Energy=-1.717189D-03
 GradGradGradGradGradGradGradGradGradGradGradGradGradGradGradGradGradGrad

                          Input orientation:                          
 ---------------------------------------------------------------------
 Center     Atomic      Atomic             Coordinates (Angstroms)
 Number     Number       Type             X           Y           Z
 ---------------------------------------------------------------------
      1         78           0        0.000000    0.000000    0.000000
      2         35           0        0.000000    0.000000    2.538622
      3         35           0        0.000000    2.538622    0.000000
      4         35           0        2.538622    0.000000    0.000000
      5         35           0        0.000000    0.000000   -2.538622
      6         35           0        0.000000   -2.538622    0.000000
      7         35           0       -2.538622    0.000000    0.000000
 ---------------------------------------------------------------------
                    Distance matrix (angstroms):
                    1          2          3          4          5
     1  Pt   0.000000
     2  Br   2.538622   0.000000
     3  Br   2.538622   3.590153   0.000000
     4  Br   2.538622   3.590153   3.590153   0.000000
     5  Br   2.538622   5.077244   3.590153   3.590153   0.000000
     6  Br   2.538622   3.590153   5.077244   3.590153   3.590153
     7  Br   2.538622   3.590153   3.590153   5.077244   3.590153
                    6          7
     6  Br   0.000000
     7  Br   3.590153   0.000000
 Stoichiometry    Br6Pt(2-)
 Framework group  OH[O(Pt),3C4(Br.Br)]
 Deg. of freedom     1
 Full point group                 OH      NOp  48
 Largest Abelian subgroup         D2H     NOp   8
 Largest concise Abelian subgroup D2H     NOp   8
                         Standard orientation:                         
 ---------------------------------------------------------------------
 Center     Atomic      Atomic             Coordinates (Angstroms)
 Number     Number       Type             X           Y           Z
 ---------------------------------------------------------------------
      1         78           0        0.000000    0.000000    0.000000
      2         35           0        0.000000    0.000000    2.538622
      3         35           0        0.000000    2.538622    0.000000
      4         35           0        2.538622    0.000000    0.000000
      5         35           0        0.000000    0.000000   -2.538622
      6         35           0        0.000000   -2.538622    0.000000
      7         35           0       -2.538622    0.000000    0.000000
 ---------------------------------------------------------------------
 Rotational constants (GHZ):      0.2484181      0.2484181      0.2484181
 Basis read from rwf:  (5D, 7F)
 Pseudo-potential data read from rwf file.
 There are    52 symmetry adapted basis functions of AG  symmetry.
 There are    19 symmetry adapted basis functions of B1G symmetry.
 There are    19 symmetry adapted basis functions of B2G symmetry.
 There are    19 symmetry adapted basis functions of B3G symmetry.
 There are     9 symmetry adapted basis functions of AU  symmetry.
 There are    32 symmetry adapted basis functions of B1U symmetry.
 There are    32 symmetry adapted basis functions of B2U symmetry.
 There are    32 symmetry adapted basis functions of B3U symmetry.
 Integral buffers will be    131072 words long.
 Raffenetti 2 integral format.
 Two-electron integral symmetry is turned on.
   214 basis functions,   523 primitive gaussians,   234 cartesian basis functions
   115 alpha electrons      115 beta electrons
       nuclear repulsion energy      3337.7045501950 Hartrees.
 NAtoms=    7 NActive=    7 NUniq=    2 SFac= 3.00D+00 NAtFMM=   80 NAOKFM=F Big=F
 ------------------------------------------------------------------------------
 Polarizable Continuum Model (PCM)
 =================================
 Model                : PCM.
 Atomic radii         : UFF (Universal Force Field).
 Polarization charges : Total charges.
 Charge compensation  : None.
 Solution method      : Matrix inversion.
 Cavity type          : Scaled VdW (van der Waals Surface) (Alpha=1.100).
 Cavity algorithm     : GePol (No added spheres)
                        Default sphere list used, NSphG=    7.
                        Lebedev-Laikov grids with approx.  5.0 points / Ang**2.
                        Smoothing algorithm: Karplus/York (Gamma=1.0000).
                        Polarization charges: spherical gaussians, with
                                              point-specific exponents (IZeta= 3).
                        Self-potential: point-specific (ISelfS= 7).
                        Self-field    : sphere-specific E.n sum rule (ISelfD= 2).
 1st derivatives      : Analytical E(r).r(x)/FMM algorithm (CHGder, D1EAlg=3).
                        Cavity 1st derivative terms included.
 Solvent              : Water, Eps=  78.355300 Eps(inf)=   1.777849
 ------------------------------------------------------------------------------
 Spheres list:
 ISph  on   Nord    Re0     Alpha      Xe            Ye            Ze
    1  Pt      1    1.377   1.100      0.000000      0.000000      0.000000
    2  Br      2    2.095   1.100      0.000000      0.000000      2.538622
    3  Br      3    2.095   1.100      0.000000      2.538622      0.000000
    4  Br      4    2.095   1.100      2.538622      0.000000      0.000000
    5  Br      5    2.095   1.100      0.000000      0.000000     -2.538622
    6  Br      6    2.095   1.100      0.000000     -2.538622      0.000000
    7  Br      7    2.095   1.100     -2.538622      0.000000      0.000000
 ------------------------------------------------------------------------------
 One-electron integrals computed using PRISM.
  48 Symmetry operations used in ECPInt.
 ECPInt:  NShTT=    3240 NPrTT=   19557 LenC2=    2761 LenP2D=   10809.
 LDataN:  DoStor=T MaxTD1= 6 Len=  172
 NBasis=   214 RedAO= T  NBF=    52    19    19    19     9    32    32    32
 NBsUse=   214 1.00D-06 NBFU=    52    19    19    19     9    32    32    32
 Defaulting to unpruned grid for atomic number  78.
 Initial guess read from the read-write file.
 B after Tr=     0.000000    0.000000    0.000000
         Rot=    1.000000    0.000000    0.000000    0.000000 Ang=   0.00 deg.
 Initial guess orbital symmetries:
       Occupied  (A1G) (T1U) (T1U) (T1U) (EG) (EG) (A1G) (T1U)
                 (T1U) (T1U) (EG) (EG) (T1U) (T1U) (T1U) (EG) (EG)
                 (A1G) (T1G) (T1G) (T1G) (T1U) (T1U) (T1U) (T2U)
                 (T2U) (T2U) (T2G) (T2G) (T2G) (T1U) (T1U) (T1U)
                 (A1G) (EG) (EG) (T1U) (T1U) (T1U) (EG) (EG) (A1G)
                 (T1G) (T1G) (T1G) (T1U) (T1U) (T1U) (T2U) (T2U)
                 (T2U) (T2G) (T2G) (T2G) (A1G) (T1U) (T1U) (T1U)
                 (A1G) (EG) (EG) (T2G) (T2G) (T2G) (T1U) (T1U)
                 (T1U) (T1G) (T1G) (T1G) (T2U) (T2U) (T2U) (EU)
                 (EU) (T2G) (T2G) (T2G) (A2U) (A2G) (T2U) (T2U)
                 (T2U) (EG) (EG) (T1U) (T1U) (T1U) (A1G) (T1U)
                 (T1U) (T1U) (EG) (EG) (EG) (EG) (A1G) (T2G) (T2G)
                 (T2G) (T1U) (T1U) (T1U) (T2U) (T2U) (T2U) (T2G)
                 (T2G) (T2G) (T1U) (T1U) (T1U) (T1G) (T1G) (T1G)
       Virtual   (EG) (EG) (T1U) (T1U) (T1U) (A1G) (T1U) (T1U)
                 (T1U) (A1G) (T2G) (T2G) (T2G) (EG) (EG) (EG) (EG)
                 (T1U) (T1U) (T1U) (T2U) (T2U) (T2U) (T1U) (T1U)
                 (T1U) (EG) (EG) (T1G) (T1G) (T1G) (A2U) (T2U)
                 (T2U) (T2U) (T2G) (T2G) (T2G) (EU) (EU) (A1G)
                 (A2G) (T2G) (T2G) (T2G) (T1U) (T1U) (T1U) (T2U)
                 (T2U) (T2U) (T1G) (T1G) (T1G) (T1U) (T1U) (T1U)
                 (EG) (EG) (A1G) (T2G) (T2G) (T2G) (T1U) (T1U)
                 (T1U) (EG) (EG) (T2U) (T2U) (T2U) (A2U) (T2G)
                 (T2G) (T2G) (EU) (EU) (EG) (EG) (T1U) (T1U) (T1U)
                 (A2G) (T2U) (T2U) (T2U) (T1G) (T1G) (T1G) (A1G)
                 (T2G) (T2G) (T2G) (T1U) (T1U) (T1U) (EG) (EG)
                 (A1G)
 Harris functional with IExCor=  402 diagonalized for initial guess.
 ExpMin= 2.90D-02 ExpMax= 1.13D+05 ExpMxC= 1.70D+04 IAcc=3 IRadAn=         0 AccDes= 0.00D+00
 HarFok:  IExCor=  402 AccDes= 0.00D+00 IRadAn=         0 IDoV= 1
 ScaDFX=  1.000000  1.000000  1.000000  1.000000
 Defaulting to unpruned grid for atomic number  78.
 Defaulting to unpruned grid for atomic number  78.
 Defaulting to unpruned grid for atomic number  78.
 Defaulting to unpruned grid for atomic number  78.
 Defaulting to unpruned grid for atomic number  78.
 Defaulting to unpruned grid for atomic number  78.
 Defaulting to unpruned grid for atomic number  78.
 Defaulting to unpruned grid for atomic number  78.
 Defaulting to unpruned grid for atomic number  78.
 Defaulting to unpruned grid for atomic number  78.
 Defaulting to unpruned grid for atomic number  78.
 Defaulting to unpruned grid for atomic number  78.
 Defaulting to unpruned grid for atomic number  78.
 Defaulting to unpruned grid for atomic number  78.
[...]
 Defaulting to unpruned grid for atomic number  78.
 Defaulting to unpruned grid for atomic number  78.
 Defaulting to unpruned grid for atomic number  78.
 Defaulting to unpruned grid for atomic number  78.
 Defaulting to unpruned grid for atomic number  78.
 Defaulting to unpruned grid for atomic number  78.
 Defaulting to unpruned grid for atomic number  78.
 Defaulting to unpruned grid for atomic number  78.
 Defaulting to unpruned grid for atomic number  78.
 Defaulting to unpruned grid for atomic number  78.
 Defaulting to unpruned grid for atomic number  78.
 Defaulting to unpruned grid for atomic number  78.
 Defaulting to unpruned grid for atomic number  78.
 Defaulting to unpruned grid for atomic number  78.
 Defaulting to unpruned grid for atomic number  78.
 Defaulting to unpruned grid for atomic number  78.
 Defaulting to unpruned grid for atomic number  78.
 Defaulting to unpruned grid for atomic number  78.
 FoFCou: FMM=F IPFlag=           0 FMFlag=      100000 FMFlg1=           0
         NFxFlg=           0 DoJE=T BraDBF=F KetDBF=T FulRan=T
         Omega=  0.000000  0.000000  1.000000  0.000000  0.000000 ICntrl=     500 IOpCl=  0
         NMat0=    1 NMatS0=    1 NMatT0=    0 NMatD0=    1 NMtDS0=    0 NMtDT0=    0
         I1Cent=           4 NGrid=           0.
 Petite list used in FoFCou.
 Requested convergence on RMS density matrix=1.00D-08 within 128 cycles.
 Requested convergence on MAX density matrix=1.00D-06.
 Requested convergence on             energy=1.00D-06.
 No special actions if energy rises.
 Keep R1 ints in memory in canonical form, NReq=384953187.
 An orbital has undefined symmetry, so N**3 symmetry is turned off.
 Defaulting to unpruned grid for atomic number  78.
 Defaulting to unpruned grid for atomic number  78.
 Defaulting to unpruned grid for atomic number  78.
 Defaulting to unpruned grid for atomic number  78.
 Defaulting to unpruned grid for atomic number  78.
 Defaulting to unpruned grid for atomic number  78.
 Defaulting to unpruned grid for atomic number  78.
 Defaulting to unpruned grid for atomic number  78.
 Defaulting to unpruned grid for atomic number  78.
 Defaulting to unpruned grid for atomic number  78.
 Defaulting to unpruned grid for atomic number  78.
 Defaulting to unpruned grid for atomic number  78.
 Defaulting to unpruned grid for atomic number  78.
 Defaulting to unpruned grid for atomic number  78.
 Defaulting to unpruned grid for atomic number  78.
 Defaulting to unpruned grid for atomic number  78.
 Defaulting to unpruned grid for atomic number  78.
 Defaulting to unpruned grid for atomic number  78.
 Defaulting to unpruned grid for atomic number  78.
 Defaulting to unpruned grid for atomic number  78.
 Defaulting to unpruned grid for atomic number  78.
 Defaulting to unpruned grid for atomic number  78.
 Defaulting to unpruned grid for atomic number  78.
 Defaulting to unpruned grid for atomic number  78.
 Error on total polarization charges =  0.02049
 SCF Done:  E(RB3LYP) =  -15562.9024582     A.U. after    8 cycles
             Convg  =    0.1912D-08             -V/T =  2.0065
  48 Symmetry operations used in ECPInt.
 ECPInt:  NShTT=    3240 NPrTT=   19557 LenC2=    2761 LenP2D=   10785.
 LDataN:  DoStor=T MaxTD1= 7 Len=  274
 D1PCM: PCM CHGder 1st derivatives, ID1Alg=3 FixD1E=F DoIter=F DoCFld=F I1PDM=0.
 Calling FoFJK, ICntrl=      2127 FMM=F ISym2X=1 I1Cent= 0 IOpClX= 0 NMat=1 NMatS=1 NMatT=0.
 Defaulting to unpruned grid for atomic number  78.
 Defaulting to unpruned grid for atomic number  78.
 Defaulting to unpruned grid for atomic number  78.
 Defaulting to unpruned grid for atomic number  78.
 Defaulting to unpruned grid for atomic number  78.
 Defaulting to unpruned grid for atomic number  78.
 Defaulting to unpruned grid for atomic number  78.
 Defaulting to unpruned grid for atomic number  78.
 Defaulting to unpruned grid for atomic number  78.
 Defaulting to unpruned grid for atomic number  78.
 Defaulting to unpruned grid for atomic number  78.
 Defaulting to unpruned grid for atomic number  78.
 Defaulting to unpruned grid for atomic number  78.
 Defaulting to unpruned grid for atomic number  78.
 Defaulting to unpruned grid for atomic number  78.
 Defaulting to unpruned grid for atomic number  78.
 Defaulting to unpruned grid for atomic number  78.
 Defaulting to unpruned grid for atomic number  78.
 Defaulting to unpruned grid for atomic number  78.
 Defaulting to unpruned grid for atomic number  78.
 Defaulting to unpruned grid for atomic number  78.
 Defaulting to unpruned grid for atomic number  78.
 Defaulting to unpruned grid for atomic number  78.
 Defaulting to unpruned grid for atomic number  78.
 ***** Axes restored to original set *****
 -------------------------------------------------------------------
 Center     Atomic                   Forces (Hartrees/Bohr)
 Number     Number              X              Y              Z
 -------------------------------------------------------------------
      1       78           0.000000000    0.000000000    0.000000000
      2       35           0.000000000    0.000000000    0.018281860
      3       35           0.000000000    0.018281860    0.000000000
      4       35           0.018281860    0.000000000    0.000000000
      5       35           0.000000000    0.000000000   -0.018281860
      6       35           0.000000000   -0.018281860    0.000000000
      7       35          -0.018281860    0.000000000    0.000000000
 -------------------------------------------------------------------
 Cartesian Forces:  Max     0.018281860 RMS     0.009772065

 GradGradGradGradGradGradGradGradGradGradGradGradGradGradGradGradGradGrad
 Berny optimization.
 Search for a local minimum.
 Step number  31 out of a maximum of   31
 All quantities printed in internal units (Hartrees-Bohrs-Radians)
 Update second derivatives using D2CorN and points   31   29
 Energy Rises -- skip Quadratic search.
 Quartic linear search produced a step of -0.66671.
 ClnCor:  largest displacement from symmetrization is 6.23D-15 for atom     2.
 TrRot=  0.000000  0.000000  0.000000  0.000000  0.000000  0.000000
 Variable       Old X    -DE/DX   Delta X   Delta X   Delta X     New X
                                 (Linear)    (Quad)   (Total)
    X1        0.00000   0.00000   0.00000   0.00000   0.00000   0.00000
    Y1        0.00000   0.00000   0.00000   0.00000   0.00000   0.00000
    Z1        0.00000   0.00000   0.00000   0.00000   0.00000   0.00000
    X2        0.00000   0.00000   0.00000   0.00000   0.00000   0.00000
    Y2        0.00000   0.00000   0.00000   0.00000   0.00000   0.00000
    Z2        4.81363   0.01828  -0.01111   0.00000  -0.01111   4.80252
    X3        0.00000   0.00000   0.00000   0.00000   0.00000   0.00000
    Y3        4.81363   0.01828  -0.01111   0.00000  -0.01111   4.80252
    Z3        0.00000   0.00000   0.00000   0.00000   0.00000   0.00000
    X4        4.81363   0.01828  -0.01111   0.00000  -0.01111   4.80252
    Y4        0.00000   0.00000   0.00000   0.00000   0.00000   0.00000
    Z4        0.00000   0.00000   0.00000   0.00000   0.00000   0.00000
    X5        0.00000   0.00000   0.00000   0.00000   0.00000   0.00000
    Y5        0.00000   0.00000   0.00000   0.00000   0.00000   0.00000
    Z5       -4.81363  -0.01828   0.01111   0.00000   0.01111  -4.80252
    X6        0.00000   0.00000   0.00000   0.00000   0.00000   0.00000
    Y6       -4.81363  -0.01828   0.01111   0.00000   0.01111  -4.80252
    Z6        0.00000   0.00000   0.00000   0.00000   0.00000   0.00000
    X7       -4.81363  -0.01828   0.01111   0.00000   0.01111  -4.80252
    Y7        0.00000   0.00000   0.00000   0.00000   0.00000   0.00000
    Z7        0.00000   0.00000   0.00000   0.00000   0.00000   0.00000
         Item               Value     Threshold  Converged?
 Maximum Force            0.018282     0.002500     NO 
 RMS     Force            0.009772     0.001667     NO 
 Maximum Displacement     0.011111     0.010000     NO 
 RMS     Displacement     0.005939     0.006667     YES
 Predicted change in Energy=-3.907982D+07
 Optimization stopped.
    -- Number of steps exceeded,  NStep=  31
    -- Flag reset to prevent archiving.
 GradGradGradGradGradGradGradGradGradGradGradGradGradGradGradGradGradGrad

                          Input orientation:                          
 ---------------------------------------------------------------------
 Center     Atomic      Atomic             Coordinates (Angstroms)
 Number     Number       Type             X           Y           Z
 ---------------------------------------------------------------------
      1         78           0        0.000000    0.000000    0.000000
      2         35           0        0.000000    0.000000    2.547262
      3         35           0        0.000000    2.547262    0.000000
      4         35           0        2.547262    0.000000    0.000000
      5         35           0        0.000000    0.000000   -2.547262
      6         35           0        0.000000   -2.547262    0.000000
      7         35           0       -2.547262    0.000000    0.000000
 ---------------------------------------------------------------------
                    Distance matrix (angstroms):
                    1          2          3          4          5
     1  Pt   0.000000
     2  Br   2.547262   0.000000
     3  Br   2.547262   3.602373   0.000000
     4  Br   2.547262   3.602373   3.602373   0.000000
     5  Br   2.547262   5.094524   3.602373   3.602373   0.000000
     6  Br   2.547262   3.602373   5.094524   3.602373   3.602373
     7  Br   2.547262   3.602373   3.602373   5.094524   3.602373
                    6          7
     6  Br   0.000000
     7  Br   3.602373   0.000000
 Stoichiometry    Br6Pt(2-)
 Framework group  OH[O(Pt),3C4(Br.Br)]
 Deg. of freedom     1
 Full point group                 OH      NOp  48
 Largest Abelian subgroup         D2H     NOp   8
 Largest concise Abelian subgroup D2H     NOp   8
                         Standard orientation:                         
 ---------------------------------------------------------------------
 Center     Atomic      Atomic             Coordinates (Angstroms)
 Number     Number       Type             X           Y           Z
 ---------------------------------------------------------------------
      1         78           0        0.000000    0.000000    0.000000
      2         35           0        0.000000    0.000000    2.547262
      3         35           0        0.000000    2.547262    0.000000
      4         35           0        2.547262    0.000000    0.000000
      5         35           0        0.000000    0.000000   -2.547262
      6         35           0        0.000000   -2.547262    0.000000
      7         35           0       -2.547262    0.000000    0.000000
 ---------------------------------------------------------------------
 Rotational constants (GHZ):      0.2467357      0.2467357      0.2467357

 **********************************************************************

            Population analysis using the SCF density.

 **********************************************************************

 Orbital symmetries:
       Occupied  (A1G) (T1U) (T1U) (T1U) (EG) (EG) (A1G) (T1U)
                 (T1U) (T1U) (EG) (EG) (T1U) (T1U) (T1U) (EG) (EG)
                 (A1G) (T1G) (T1G) (T1G) (T1U) (T1U) (T1U) (T2U)
                 (T2U) (T2U) (T2G) (T2G) (T2G) (T1U) (T1U) (T1U)
                 (A1G) (EG) (EG) (T1U) (T1U) (T1U) (EG) (EG) (A1G)
                 (T1G) (T1G) (T1G) (T1U) (T1U) (T1U) (T2U) (T2U)
                 (T2U) (T2G) (T2G) (T2G) (A1G) (T1U) (T1U) (T1U)
                 (A1G) (EG) (EG) (T2G) (T2G) (T2G) (T1U) (T1U)
                 (T1U) (T1G) (T1G) (T1G) (T2U) (T2U) (T2U) (EU)
                 (EU) (T2G) (T2G) (T2G) (A2U) (A2G) (T2U) (T2U)
                 (T2U) (EG) (EG) (T1U) (T1U) (T1U) (A1G) (T1U)
                 (T1U) (T1U) (EG) (EG) (EG) (EG) (A1G) (T2G) (T2G)
                 (T2G) (T1U) (T1U) (T1U) (T2U) (T2U) (T2U) (T2G)
                 (T2G) (T2G) (T1U) (T1U) (T1U) (T1G) (T1G) (T1G)
       Virtual   (EG) (EG) (T1U) (T1U) (T1U) (A1G) (T1U) (T1U)
                 (T1U) (A1G) (T2G) (T2G) (T2G) (EG) (EG) (EG) (EG)
                 (T1U) (T1U) (T1U) (T2U) (T2U) (T2U) (T1U) (T1U)
                 (T1U) (EG) (EG) (T1G) (T1G) (T1G) (A2U) (T2U)
                 (T2U) (T2U) (T2G) (T2G) (T2G) (EU) (EU) (A1G)
                 (A2G) (T2G) (T2G) (T2G) (T1U) (T1U) (T1U) (T2U)
                 (T2U) (T2U) (T1G) (T1G) (T1G) (T1U) (T1U) (T1U)
                 (EG) (EG) (A1G) (T2G) (T2G) (T2G) (T1U) (T1U)
                 (T1U) (EG) (EG) (T2U) (T2U) (T2U) (A2U) (T2G)
                 (T2G) (T2G) (EU) (EU) (EG) (EG) (T1U) (T1U) (T1U)
                 (A2G) (T2U) (T2U) (T2U) (T1G) (T1G) (T1G) (A1G)
                 (T2G) (T2G) (T2G) (T1U) (T1U) (T1U) (EG) (EG)
                 (A1G)
 The electronic state is 1-A1G.
 Alpha  occ. eigenvalues -- -482.74609-482.74606-482.74606-482.74606-482.74604
 Alpha  occ. eigenvalues -- -482.74604 -62.42712 -62.42711 -62.42711 -62.42711
 Alpha  occ. eigenvalues --  -62.42709 -62.42709 -56.25912 -56.25912 -56.25912
 Alpha  occ. eigenvalues --  -56.25911 -56.25911 -56.25910 -56.25614 -56.25614
 Alpha  occ. eigenvalues --  -56.25614 -56.25614 -56.25614 -56.25614 -56.25612
 Alpha  occ. eigenvalues --  -56.25612 -56.25612 -56.25611 -56.25611 -56.25611
 Alpha  occ. eigenvalues --   -8.64421  -8.64421  -8.64421  -8.64420  -8.64419
 Alpha  occ. eigenvalues --   -8.64419  -6.47602  -6.47602  -6.47602  -6.47602
 Alpha  occ. eigenvalues --   -6.47602  -6.47602  -6.46553  -6.46553  -6.46553
 Alpha  occ. eigenvalues --   -6.46553  -6.46553  -6.46553  -6.46553  -6.46553
 Alpha  occ. eigenvalues --   -6.46553  -6.46553  -6.46553  -6.46553  -3.99984
 Alpha  occ. eigenvalues --   -2.59044  -2.59044  -2.59044  -2.59043  -2.59043
 Alpha  occ. eigenvalues --   -2.59043  -2.58755  -2.58755  -2.58755  -2.58754
 Alpha  occ. eigenvalues --   -2.58754  -2.58754  -2.58754  -2.58754  -2.58754
 Alpha  occ. eigenvalues --   -2.58754  -2.58754  -2.58754  -2.57931  -2.57931
 Alpha  occ. eigenvalues --   -2.57931  -2.57931  -2.57931  -2.57930  -2.57930
 Alpha  occ. eigenvalues --   -2.57930  -2.57930  -2.57930  -2.57930  -2.57930
 Alpha  occ. eigenvalues --   -2.21000  -2.21000  -2.21000  -0.73668  -0.71305
 Alpha  occ. eigenvalues --   -0.71305  -0.71305  -0.71284  -0.71284  -0.38239
 Alpha  occ. eigenvalues --   -0.38239  -0.38221  -0.36605  -0.36605  -0.36605
 Alpha  occ. eigenvalues --   -0.30596  -0.30596  -0.30596  -0.25322  -0.25322
 Alpha  occ. eigenvalues --   -0.25322  -0.24911  -0.24911  -0.24911  -0.24847
 Alpha  occ. eigenvalues --   -0.24847  -0.24847  -0.23167  -0.23167  -0.23167
 Alpha virt. eigenvalues --   -0.11491  -0.11491   0.05739   0.05739   0.05739
 Alpha virt. eigenvalues --    0.06015   0.20249   0.20249   0.20249   0.32127
 Alpha virt. eigenvalues --    0.33094   0.33094   0.33094   0.39859   0.39859
 Alpha virt. eigenvalues --    0.47698   0.47698   0.51711   0.51711   0.51711
 Alpha virt. eigenvalues --    0.53422   0.53422   0.53422   0.54806   0.54806
 Alpha virt. eigenvalues --    0.54806   0.55601   0.55601   0.55751   0.55751
 Alpha virt. eigenvalues --    0.55751   0.56103   0.56110   0.56110   0.56110
 Alpha virt. eigenvalues --    0.56599   0.56599   0.56599   0.57864   0.57864
 Alpha virt. eigenvalues --    0.58384   0.59643   0.59813   0.59813   0.59813
 Alpha virt. eigenvalues --    0.63718   0.63718   0.63718   0.73054   0.73054
 Alpha virt. eigenvalues --    0.73054   0.83030   0.83030   0.83030   0.88938
 Alpha virt. eigenvalues --    0.88938   0.88938   0.94186   0.94186   0.95418
 Alpha virt. eigenvalues --    0.99129   0.99129   0.99129   1.09098   1.09098
 Alpha virt. eigenvalues --    1.09098   1.26499   1.26499   3.42103   3.42103
 Alpha virt. eigenvalues --    3.42103   3.43814   3.44919   3.44919   3.44919
 Alpha virt. eigenvalues --    3.45368   3.45368   3.46340   3.46340   3.46582
 Alpha virt. eigenvalues --    3.46582   3.46582   3.47086   3.47498   3.47498
 Alpha virt. eigenvalues --    3.47498   3.48005   3.48005   3.48005   3.60170
 Alpha virt. eigenvalues --    3.67078   3.67078   3.67078   3.72362   3.72362
 Alpha virt. eigenvalues --    3.72362   3.86151   3.86151  11.40801
          Condensed to atoms (all electrons):
              1          2          3          4          5          6
     1  Pt  17.417572   0.224822   0.224822   0.224822   0.224822   0.224822
     2  Br   0.224822  35.059892  -0.019178  -0.019178  -0.002417  -0.019178
     3  Br   0.224822  -0.019178  35.059892  -0.019178  -0.019178  -0.002417
     4  Br   0.224822  -0.019178  -0.019178  35.059892  -0.019178  -0.019178
     5  Br   0.224822  -0.002417  -0.019178  -0.019178  35.059892  -0.019178
     6  Br   0.224822  -0.019178  -0.002417  -0.019178  -0.019178  35.059892
     7  Br   0.224822  -0.019178  -0.019178  -0.002417  -0.019178  -0.019178
              7
     1  Pt   0.224822
     2  Br  -0.019178
     3  Br  -0.019178
     4  Br  -0.002417
     5  Br  -0.019178
     6  Br  -0.019178
     7  Br  35.059892
 Mulliken atomic charges:
              1
     1  Pt  -0.766502
     2  Br  -0.205583
     3  Br  -0.205583
     4  Br  -0.205583
     5  Br  -0.205583
     6  Br  -0.205583
     7  Br  -0.205583
 Sum of Mulliken atomic charges =  -2.00000
 Mulliken charges with hydrogens summed into heavy atoms:
              1
     1  Pt  -0.766502
     2  Br  -0.205583
     3  Br  -0.205583
     4  Br  -0.205583
     5  Br  -0.205583
     6  Br  -0.205583
     7  Br  -0.205583
 Sum of Mulliken charges with hydrogens summed into heavy atoms =  -2.00000
 Electronic spatial extent (au):  <R**2>=           5230.8640
 Charge=             -2.0000 electrons
 Dipole moment (field-independent basis, Debye):
    X=              0.0000    Y=              0.0000    Z=              0.0000  Tot=              0.0000
 Quadrupole moment (field-independent basis, Debye-Ang):
   XX=           -163.6240   YY=           -163.6240   ZZ=           -163.6240
   XY=              0.0000   XZ=              0.0000   YZ=              0.0000
 Traceless Quadrupole moment (field-independent basis, Debye-Ang):
   XX=              0.0000   YY=              0.0000   ZZ=              0.0000
   XY=              0.0000   XZ=              0.0000   YZ=              0.0000
 Octapole moment (field-independent basis, Debye-Ang**2):
  XXX=              0.0000  YYY=              0.0000  ZZZ=              0.0000  XYY=              0.0000
  XXY=              0.0000  XXZ=              0.0000  XZZ=              0.0000  YZZ=              0.0000
  YYZ=              0.0000  XYZ=              0.0000
 Hexadecapole moment (field-independent basis, Debye-Ang**3):
 XXXX=          -1748.5676 YYYY=          -1748.5676 ZZZZ=          -1748.5676 XXXY=              0.0000
 XXXZ=              0.0000 YYYX=              0.0000 YYYZ=              0.0000 ZZZX=              0.0000
 ZZZY=              0.0000 XXYY=           -575.0577 XXZZ=           -575.0577 YYZZ=           -575.0577
 XXYZ=              0.0000 YYXZ=              0.0000 ZZXY=              0.0000
 N-N= 3.326383000073D+03 E-N=-4.388511237519D+04  KE= 1.546265269719D+04
 Symmetry AG   KE= 5.593806241563D+03
 Symmetry B1G  KE= 7.129277944558D+02
 Symmetry B2G  KE= 7.129277944558D+02
 Symmetry B3G  KE= 7.129277944558D+02
 Symmetry AU   KE= 1.286544922910D+02
 Symmetry B1U  KE= 2.533802859988D+03
 Symmetry B2U  KE= 2.533802859988D+03
 Symmetry B3U  KE= 2.533802859988D+03


 WAR ES EIN GOTT DER DIESE ZEICHEN SCHRIEB?
          - LUDWIG BOLTZMANN, QUOTING GOETHE, ABOUT MAXWELL'S EQUATIONS.
 Error termination request processed by link 9999.
 Error termination via Lnk1e in /scr/programs/g09/l9999.exe at Wed Dec  1 04:38:24 2021.
 Job cpu time:  0 days 10 hours 46 minutes 24.1 seconds.
 File lengths (MBytes):  RWF=    121 Int=      0 D2E=      0 Chk=      6 Scr=      1
