 Entering Gaussian System, Link 0=g09
 Input=estrutura12_D2O.com
 Output=estrutura12_D2O.log
 Initial command:
 /home/scr/programs/g09/l1.exe "/home/scr/diego/Gau-28619.inp" -scrdir="/home/scr/diego/"
 Entering Link 1 = /home/scr/programs/g09/l1.exe PID=     28621.
  
 Copyright (c) 1988,1990,1992,1993,1995,1998,2003,2009,2013,
            Gaussian, Inc.  All Rights Reserved.
  
 This is part of the Gaussian(R) 09 program.  It is based on
 the Gaussian(R) 03 system (copyright 2003, Gaussian, Inc.),
 the Gaussian(R) 98 system (copyright 1998, Gaussian, Inc.),
 the Gaussian(R) 94 system (copyright 1995, Gaussian, Inc.),
 the Gaussian 92(TM) system (copyright 1992, Gaussian, Inc.),
 the Gaussian 90(TM) system (copyright 1990, Gaussian, Inc.),
 the Gaussian 88(TM) system (copyright 1988, Gaussian, Inc.),
 the Gaussian 86(TM) system (copyright 1986, Carnegie Mellon
 University), and the Gaussian 82(TM) system (copyright 1983,
 Carnegie Mellon University). Gaussian is a federally registered
 trademark of Gaussian, Inc.
  
 This software contains proprietary and confidential information,
 including trade secrets, belonging to Gaussian, Inc.
  
 This software is provided under written license and may be
 used, copied, transmitted, or stored only in accord with that
 written license.
  
 The following legend is applicable only to US Government
 contracts under FAR:
  
                    RESTRICTED RIGHTS LEGEND
  
 Use, reproduction and disclosure by the US Government is
 subject to restrictions as set forth in subparagraphs (a)
 and (c) of the Commercial Computer Software - Restricted
 Rights clause in FAR 52.227-19.
  
 Gaussian, Inc.
 340 Quinnipiac St., Bldg. 40, Wallingford CT 06492
  
  
 ---------------------------------------------------------------
 Warning -- This program may not be used in any manner that
 competes with the business of Gaussian, Inc. or will provide
 assistance to any competitor of Gaussian, Inc.  The licensee
 of this program is prohibited from giving any competitor of
 Gaussian, Inc. access to this program.  By using this program,
 the user acknowledges that Gaussian, Inc. is engaged in the
 business of creating and licensing software in the field of
 computational chemistry and represents and warrants to the
 licensee that it is not a competitor of Gaussian, Inc. and that
 it will not use this program in any manner prohibited above.
 ---------------------------------------------------------------
  

 Cite this work as:
 Gaussian 09, Revision D.01,
 M. J. Frisch, G. W. Trucks, H. B. Schlegel, G. E. Scuseria, 
 M. A. Robb, J. R. Cheeseman, G. Scalmani, V. Barone, B. Mennucci, 
 G. A. Petersson, H. Nakatsuji, M. Caricato, X. Li, H. P. Hratchian, 
 A. F. Izmaylov, J. Bloino, G. Zheng, J. L. Sonnenberg, M. Hada, 
 M. Ehara, K. Toyota, R. Fukuda, J. Hasegawa, M. Ishida, T. Nakajima, 
 Y. Honda, O. Kitao, H. Nakai, T. Vreven, J. A. Montgomery, Jr., 
 J. E. Peralta, F. Ogliaro, M. Bearpark, J. J. Heyd, E. Brothers, 
 K. N. Kudin, V. N. Staroverov, T. Keith, R. Kobayashi, J. Normand, 
 K. Raghavachari, A. Rendell, J. C. Burant, S. S. Iyengar, J. Tomasi, 
 M. Cossi, N. Rega, J. M. Millam, M. Klene, J. E. Knox, J. B. Cross, 
 V. Bakken, C. Adamo, J. Jaramillo, R. Gomperts, R. E. Stratmann, 
 O. Yazyev, A. J. Austin, R. Cammi, C. Pomelli, J. W. Ochterski, 
 R. L. Martin, K. Morokuma, V. G. Zakrzewski, G. A. Voth, 
 P. Salvador, J. J. Dannenberg, S. Dapprich, A. D. Daniels, 
 O. Farkas, J. B. Foresman, J. V. Ortiz, J. Cioslowski, 
 and D. J. Fox, Gaussian, Inc., Wallingford CT, 2013.
 
 ******************************************
 Gaussian 09:  EM64L-G09RevD.01 24-Apr-2013
                18-Aug-2021 
 ******************************************
 %mem=15gb
 %nproc=8
 Will use up to    8 processors via shared memory.
 ------------------------------------------------------------
 #b3lyp/gen pseudo=read opt freq=noraman scrf=(solvent=water)
 ------------------------------------------------------------
 1/14=-1,18=20,19=15,26=3,38=1/1,3;
 2/9=110,12=2,17=6,18=5,40=1/2;
 3/5=7,11=2,16=1,17=8,25=1,30=1,70=2201,71=1,72=1,74=-5/1,2,3;
 4//1;
 5/5=2,38=5,53=1/2;
 6/7=2,8=2,9=2,10=2,28=1/1;
 7//1,2,3,16;
 1/14=-1,18=20,19=15,26=3/3(2);
 2/9=110/2;
 99//99;
 2/9=110/2;
 3/5=7,6=1,11=2,16=1,17=8,25=1,30=1,70=2205,71=1,72=1,74=-5,82=7/1,2,3;
 4/5=5,16=3,69=1/1;
 5/5=2,38=5,53=1/2;
 7//1,2,3,16;
 1/14=-1,18=20,19=15,26=3/3(-5);
 2/9=110/2;
 6/7=2,8=2,9=2,10=2,19=2,28=1/1;
 99/9=1/99;
 ------------
 Estrutura 12
 ------------
 Symbolic Z-matrix:
 Charge = -2 Multiplicity = 1
 Pt                   -0.31955   0.33835   0. 
 Br                   -0.31955  -2.09165   0. 
 Br                    2.11045   0.33835   0. 
 Br                   -2.74955   0.33835   0. 
 Cl                   -0.31955   2.61835   0. 
 N                    -0.31955   0.33835   1.99 
 N                    -0.31955   0.33835  -1.99 
 O                    -1.42998   0.97946   2.44333 
 O                     0.79089   0.97946   2.44333 
 O                    -1.42998   0.97946  -2.44333 
 O                     0.79089   0.97946  -2.44333 
 

 GradGradGradGradGradGradGradGradGradGradGradGradGradGradGradGradGradGrad
 Berny optimization.
 Initialization pass.
                           ----------------------------
                           !    Initial Parameters    !
                           ! (Angstroms and Degrees)  !
 --------------------------                            --------------------------
 ! Name  Definition              Value          Derivative Info.                !
 --------------------------------------------------------------------------------
 ! R1    R(1,2)                  2.43           estimate D2E/DX2                !
 ! R2    R(1,3)                  2.43           estimate D2E/DX2                !
 ! R3    R(1,4)                  2.43           estimate D2E/DX2                !
 ! R4    R(1,5)                  2.28           estimate D2E/DX2                !
 ! R5    R(1,6)                  1.99           estimate D2E/DX2                !
 ! R6    R(1,7)                  1.99           estimate D2E/DX2                !
 ! R7    R(6,8)                  1.36           estimate D2E/DX2                !
 ! R8    R(6,9)                  1.36           estimate D2E/DX2                !
 ! R9    R(7,10)                 1.36           estimate D2E/DX2                !
 ! R10   R(7,11)                 1.36           estimate D2E/DX2                !
 ! A1    A(2,1,3)               90.0            estimate D2E/DX2                !
 ! A2    A(2,1,4)               90.0            estimate D2E/DX2                !
 ! A3    A(2,1,6)               90.0            estimate D2E/DX2                !
 ! A4    A(2,1,7)               90.0            estimate D2E/DX2                !
 ! A5    A(3,1,5)               90.0            estimate D2E/DX2                !
 ! A6    A(3,1,6)               90.0            estimate D2E/DX2                !
 ! A7    A(3,1,7)               90.0            estimate D2E/DX2                !
 ! A8    A(4,1,5)               90.0            estimate D2E/DX2                !
 ! A9    A(4,1,6)               90.0            estimate D2E/DX2                !
 ! A10   A(4,1,7)               90.0            estimate D2E/DX2                !
 ! A11   A(5,1,6)               90.0            estimate D2E/DX2                !
 ! A12   A(5,1,7)               90.0            estimate D2E/DX2                !
 ! A13   A(1,6,8)              109.4712         estimate D2E/DX2                !
 ! A14   A(1,6,9)              109.4712         estimate D2E/DX2                !
 ! A15   A(8,6,9)              109.4713         estimate D2E/DX2                !
 ! A16   A(1,7,10)             109.4712         estimate D2E/DX2                !
 ! A17   A(1,7,11)             109.4712         estimate D2E/DX2                !
 ! A18   A(10,7,11)            109.4713         estimate D2E/DX2                !
 ! A19   L(2,1,5,3,-1)         180.0            estimate D2E/DX2                !
 ! A20   L(3,1,4,2,-1)         180.0            estimate D2E/DX2                !
 ! A21   L(6,1,7,2,-1)         180.0            estimate D2E/DX2                !
 ! A22   L(2,1,5,3,-2)         180.0            estimate D2E/DX2                !
 ! A23   L(3,1,4,2,-2)         180.0            estimate D2E/DX2                !
 ! A24   L(6,1,7,2,-2)         180.0            estimate D2E/DX2                !
 ! D1    D(2,1,6,8)           -120.0            estimate D2E/DX2                !
 ! D2    D(2,1,6,9)            120.0            estimate D2E/DX2                !
 ! D3    D(3,1,6,8)            150.0            estimate D2E/DX2                !
 ! D4    D(3,1,6,9)             30.0            estimate D2E/DX2                !
 ! D5    D(4,1,6,8)            -30.0            estimate D2E/DX2                !
 ! D6    D(4,1,6,9)           -150.0            estimate D2E/DX2                !
 ! D7    D(5,1,6,8)             60.0            estimate D2E/DX2                !
 ! D8    D(5,1,6,9)            -60.0            estimate D2E/DX2                !
 ! D9    D(8,6,7,10)             0.0            estimate D2E/DX2                !
 ! D10   D(8,6,7,11)           120.0            estimate D2E/DX2                !
 ! D11   D(9,6,7,10)          -120.0            estimate D2E/DX2                !
 ! D12   D(9,6,7,11)             0.0            estimate D2E/DX2                !
 ! D13   D(2,1,7,10)           120.0            estimate D2E/DX2                !
 ! D14   D(2,1,7,11)          -120.0            estimate D2E/DX2                !
 ! D15   D(3,1,7,10)          -150.0            estimate D2E/DX2                !
 ! D16   D(3,1,7,11)           -30.0            estimate D2E/DX2                !
 ! D17   D(4,1,7,10)            30.0            estimate D2E/DX2                !
 ! D18   D(4,1,7,11)           150.0            estimate D2E/DX2                !
 ! D19   D(5,1,7,10)           -60.0            estimate D2E/DX2                !
 ! D20   D(5,1,7,11)            60.0            estimate D2E/DX2                !
 --------------------------------------------------------------------------------
 Trust Radius=3.00D-01 FncErr=1.00D-07 GrdErr=1.00D-06
 Number of steps in this run=     64 maximum allowed number of steps=    100.
 GradGradGradGradGradGradGradGradGradGradGradGradGradGradGradGradGradGrad

                          Input orientation:                          
 ---------------------------------------------------------------------
 Center     Atomic      Atomic             Coordinates (Angstroms)
 Number     Number       Type             X           Y           Z
 ---------------------------------------------------------------------
      1         78           0       -0.319549    0.338346    0.000000
      2         35           0       -0.319549   -2.091654    0.000000
      3         35           0        2.110451    0.338346    0.000000
      4         35           0       -2.749549    0.338346    0.000000
      5         17           0       -0.319549    2.618346    0.000000
      6          7           0       -0.319549    0.338346    1.990000
      7          7           0       -0.319549    0.338346   -1.990000
      8          8           0       -1.429985    0.979455    2.443333
      9          8           0        0.790886    0.979456    2.443333
     10          8           0       -1.429985    0.979455   -2.443333
     11          8           0        0.790886    0.979456   -2.443333
 ---------------------------------------------------------------------
                    Distance matrix (angstroms):
                    1          2          3          4          5
     1  Pt   0.000000
     2  Br   2.430000   0.000000
     3  Br   2.430000   3.436539   0.000000
     4  Br   2.430000   3.436539   4.860000   0.000000
     5  Cl   2.280000   4.710000   3.332161   3.332161   0.000000
     6  N    1.990000   3.140860   3.140860   3.140860   3.026301
     7  N    1.990000   3.140860   3.140860   3.140860   3.026301
     8  O    2.759341   4.078561   4.349205   2.849938   3.144663
     9  O    2.759341   4.078561   2.849939   4.349205   3.144662
    10  O    2.759341   4.078561   4.349205   2.849938   3.144663
    11  O    2.759341   4.078561   2.849939   4.349205   3.144662
                    6          7          8          9         10
     6  N    0.000000
     7  N    3.980000   0.000000
     8  O    1.360000   4.615033   0.000000
     9  O    1.360000   4.615033   2.220871   0.000000
    10  O    4.615033   1.360000   4.886666   5.367660   0.000000
    11  O    4.615033   1.360000   5.367660   4.886666   2.220871
                   11
    11  O    0.000000
 Stoichiometry    Br3ClN2O4Pt(2-)
 Framework group  C2V[C2(BrPtCl),SGV(Br2),SGV'(N2),X(O4)]
 Deg. of freedom     9
 Full point group                 C2V     NOp   4
 Largest Abelian subgroup         C2V     NOp   4
 Largest concise Abelian subgroup C2V     NOp   4
                         Standard orientation:                         
 ---------------------------------------------------------------------
 Center     Atomic      Atomic             Coordinates (Angstroms)
 Number     Number       Type             X           Y           Z
 ---------------------------------------------------------------------
      1         78           0        0.000000    0.000000    0.104774
      2         35           0        0.000000    0.000000   -2.325226
      3         35           0        0.000000    2.430000    0.104774
      4         35           0        0.000000   -2.430000    0.104774
      5         17           0        0.000000    0.000000    2.384774
      6          7           0        1.990000    0.000000    0.104774
      7          7           0       -1.990000    0.000000    0.104774
      8          8           0        2.443333   -1.110436    0.745884
      9          8           0        2.443333    1.110436    0.745884
     10          8           0       -2.443333   -1.110436    0.745884
     11          8           0       -2.443333    1.110436    0.745884
 ---------------------------------------------------------------------
 Rotational constants (GHZ):      0.4364570      0.3360772      0.3015468
 General basis read from cards:  (5D, 7F)
 ======================================================================================================
                                       Pseudopotential Parameters
 ======================================================================================================
  Center     Atomic      Valence      Angular      Power
  Number     Number     Electrons     Momentum     of R      Exponent        Coefficient   SO-Coeffient
 ======================================================================================================
    1         78           18
                                      G and up 
                                                     1      728.9394056       -0.16192680    0.00000000
                                                     2      320.6567800    -1320.28738520    0.00000000
                                                     2       52.8680174     -298.31781350    0.00000000
                                                     2       12.0280128      -87.58370650    0.00000000
                                                     2        3.5238913       -8.14932740    0.00000000
                                      S - G
                                                     0      409.4437358        2.73342180    0.00000000
                                                     1      274.5419231       59.70243290    0.00000000
                                                     2      127.5658570      891.45895500    0.00000000
                                                     2       32.9036631      368.44676560    0.00000000
                                                     2        5.0593880      238.02630900    0.00000000
                                                     2        4.1506556     -107.05564540    0.00000000
                                      P - G
                                                     0      466.1728892        1.88785680    0.00000000
                                                     1      120.7888259       76.01386290    0.00000000
                                                     2       36.4118791      343.55111160    0.00000000
                                                     2        5.6985408      119.49117860    0.00000000
                                      D - G
                                                     0      249.5650763        2.93436780    0.00000000
                                                     1      126.6678585       59.33065710    0.00000000
                                                     2       63.1430586      452.44451940    0.00000000
                                                     2       17.9059470      210.47694790    0.00000000
                                                     2        4.2239373       58.62541120    0.00000000
                                      F - G
                                                     0      121.8158799        3.95342530    0.00000000
                                                     1       60.8757030       53.85551820    0.00000000
                                                     2       31.4767147      247.43051330    0.00000000
                                                     2        9.8811751      127.81879760    0.00000000
                                                     2        2.7319874       15.37720460    0.00000000
    2         35
                                   No pseudopotential on this center.
    3         35
                                   No pseudopotential on this center.
    4         35
                                   No pseudopotential on this center.
    5         17
                                   No pseudopotential on this center.
    6          7
                                   No pseudopotential on this center.
    7          7
                                   No pseudopotential on this center.
    8          8
                                   No pseudopotential on this center.
    9          8
                                   No pseudopotential on this center.
   10          8
                                   No pseudopotential on this center.
   11          8
                                   No pseudopotential on this center.
 ======================================================================================================
 There are    91 symmetry adapted cartesian basis functions of A1  symmetry.
 There are    35 symmetry adapted cartesian basis functions of A2  symmetry.
 There are    52 symmetry adapted cartesian basis functions of B1  symmetry.
 There are    60 symmetry adapted cartesian basis functions of B2  symmetry.
 There are    80 symmetry adapted basis functions of A1  symmetry.
 There are    34 symmetry adapted basis functions of A2  symmetry.
 There are    50 symmetry adapted basis functions of B1  symmetry.
 There are    56 symmetry adapted basis functions of B2  symmetry.
   220 basis functions,   470 primitive gaussians,   238 cartesian basis functions
    94 alpha electrons       94 beta electrons
       nuclear repulsion energy      2473.2734506319 Hartrees.
 NAtoms=   11 NActive=   11 NUniq=    6 SFac= 3.36D+00 NAtFMM=   60 NAOKFM=F Big=F
 Integral buffers will be    131072 words long.
 Raffenetti 2 integral format.
 Two-electron integral symmetry is turned on.
 ------------------------------------------------------------------------------
 Polarizable Continuum Model (PCM)
 =================================
 Model                : PCM (using non-symmetric T matrix).
 Atomic radii         : UFF (Universal Force Field).
 Polarization charges : Total charges.
 Charge compensation  : None.
 Solution method      : On-the-fly selection.
 Cavity type          : Scaled VdW (van der Waals Surface) (Alpha=1.100).
 Cavity algorithm     : GePol (No added spheres)
                        Default sphere list used, NSphG=   11.
                        Lebedev-Laikov grids with approx.  5.0 points / Ang**2.
                        Smoothing algorithm: Karplus/York (Gamma=1.0000).
                        Polarization charges: spherical gaussians, with
                                              point-specific exponents (IZeta= 3).
                        Self-potential: point-specific (ISelfS= 7).
                        Self-field    : sphere-specific E.n sum rule (ISelfD= 2).
 1st derivatives      : Analytical E(r).r(x)/FMM algorithm (CHGder, D1EAlg=3).
                        Cavity 1st derivative terms included.
 Solvent              : Water, Eps=  78.355300 Eps(inf)=   1.777849
 ------------------------------------------------------------------------------
 Spheres list:
 ISph  on   Nord     Re0    Alpha      Xe            Ye            Ze
    1  Pt      1    1.3770  1.100      0.000000      0.000000      0.104774
    2  Br      2    2.0945  1.100      0.000000      0.000000     -2.325226
    3  Br      3    2.0945  1.100      0.000000      2.430000      0.104774
    4  Br      4    2.0945  1.100      0.000000     -2.430000      0.104774
    5  Cl      5    1.9735  1.100      0.000000      0.000000      2.384774
    6   N      6    1.8300  1.100      1.990000      0.000000      0.104774
    7   N      7    1.8300  1.100     -1.990000      0.000000      0.104774
    8   O      8    1.7500  1.100      2.443333     -1.110436      0.745884
    9   O      9    1.7500  1.100      2.443333      1.110436      0.745884
   10   O     10    1.7500  1.100     -2.443333     -1.110436      0.745884
   11   O     11    1.7500  1.100     -2.443333      1.110436      0.745884
 ------------------------------------------------------------------------------
 One-electron integrals computed using PRISM.
   4 Symmetry operations used in ECPInt.
 ECPInt:  NShTT=    3916 NPrTT=   19538 LenC2=    3582 LenP2D=   12267.
 LDataN:  DoStor=T MaxTD1= 6 Len=  172
 NBasis=   220 RedAO= T EigKep=  4.40D-03  NBF=    80    34    50    56
 NBsUse=   220 1.00D-06 EigRej= -1.00D+00 NBFU=    80    34    50    56
 Defaulting to unpruned grid for atomic number  78.
 ExpMin= 2.90D-02 ExpMax= 1.13D+05 ExpMxC= 1.70D+04 IAcc=3 IRadAn=         5 AccDes= 0.00D+00
 Harris functional with IExCor=  402 and IRadAn=       5 diagonalized for initial guess.
 HarFok:  IExCor=  402 AccDes= 0.00D+00 IRadAn=         5 IDoV= 1 UseB2=F ITyADJ=14
 ICtDFT=  3500011 ScaDFX=  1.000000  1.000000  1.000000  1.000000
 Defaulting to unpruned grid for atomic number  78.
 Defaulting to unpruned grid for atomic number  78.
 Defaulting to unpruned grid for atomic number  78.
 Defaulting to unpruned grid for atomic number  78.
 Defaulting to unpruned grid for atomic number  78.
 Defaulting to unpruned grid for atomic number  78.
 Defaulting to unpruned grid for atomic number  78.
 Defaulting to unpruned grid for atomic number  78.
 FoFCou: FMM=F IPFlag=           0 FMFlag=      100000 FMFlg1=           0
         NFxFlg=           0 DoJE=T BraDBF=F KetDBF=T FulRan=T
         wScrn=  0.000000 ICntrl=     500 IOpCl=  0 I1Cent=   200000004 NGrid=           0
         NMat0=    1 NMatS0=      1 NMatT0=    0 NMatD0=    1 NMtDS0=    0 NMtDT0=    0
 Petite list used in FoFCou.
 Initial guess orbital symmetries:
       Occupied  (B2) (A1) (A1) (A1) (B2) (A1) (A1) (B2) (A1) (A1)
                 (B1) (B2) (A2) (A1) (B1) (B2) (B2) (A2) (A1) (B1)
                 (B1) (A1) (A1) (B2) (A1) (A1) (A1) (B2) (B1) (B2)
                 (A1) (A1) (B1) (A2) (B2) (A1) (B2) (B1) (A1) (B2)
                 (A1) (A1) (B2) (A2) (B1) (A1) (B2) (B1) (A1) (B2)
                 (B1) (A2) (A1) (A2) (B2) (B1) (A1) (A1) (B1) (B2)
                 (A2) (A1) (B2) (A1) (A1) (A1) (B1) (A1) (A2) (B2)
                 (B1) (B1) (A1) (A1) (B2) (A1) (A2) (B2) (B1) (A1)
                 (B1) (B2) (A2) (B2) (A1) (B2) (A1) (B1) (A2) (B1)
                 (B2) (A1) (A2) (B2)
       Virtual   (B1) (B1) (A1) (A1) (B2) (A1) (B1) (A1) (B2) (B1)
                 (A1) (A2) (B1) (A1) (B2) (A1) (B2) (A2) (A1) (A1)
                 (B1) (B2) (B2) (A2) (A1) (B1) (A1) (A2) (B2) (A1)
                 (B2) (B1) (B2) (A1) (A2) (B1) (A1) (B1) (A1) (A1)
                 (B2) (B1) (A1) (A2) (B2) (B1) (A1) (A2) (A2) (A1)
                 (B2) (B1) (B1) (A1) (B2) (A2) (A1) (A1) (B1) (B2)
                 (B1) (A1) (B2) (B2) (A1) (B1) (A1) (A1) (A2) (B2)
                 (A2) (B1) (B2) (A1) (B1) (A2) (A1) (B2) (B1) (A1)
                 (B2) (A1) (B1) (A2) (B1) (A1) (B1) (B2) (A2) (A1)
                 (B2) (B1) (A2) (A2) (B2) (A1) (A1) (B1) (A2) (B2)
                 (A1) (B1) (A2) (B2) (A1) (B1) (A2) (B1) (A2) (A1)
                 (B2) (A1) (B1) (B2) (A1) (B1) (A1) (B2) (A2) (B2)
                 (A2) (B1) (A1) (B2) (A1) (A1)
 The electronic state of the initial guess is 1-A1.
 Keep R1 ints in memory in symmetry-blocked form, NReq=370004390.
 Requested convergence on RMS density matrix=1.00D-08 within 128 cycles.
 Requested convergence on MAX density matrix=1.00D-06.
 Requested convergence on             energy=1.00D-06.
 No special actions if energy rises.
 Defaulting to unpruned grid for atomic number  78.
 Defaulting to unpruned grid for atomic number  78.
 Defaulting to unpruned grid for atomic number  78.
 Defaulting to unpruned grid for atomic number  78.
 Defaulting to unpruned grid for atomic number  78.
 Defaulting to unpruned grid for atomic number  78.
 Defaulting to unpruned grid for atomic number  78.
 Defaulting to unpruned grid for atomic number  78.
 Inv3:  Mode=1 IEnd=     7931628.
 Iteration    1 A*A^-1 deviation from unit magnitude is 6.88D-15 for     43.
 Iteration    1 A*A^-1 deviation from orthogonality  is 3.25D-15 for    390     97.
 Iteration    1 A^-1*A deviation from unit magnitude is 5.55D-15 for    260.
 Iteration    1 A^-1*A deviation from orthogonality  is 2.57D-14 for   1247    686.
 EnCoef did   100 forward-backward iterations
 EnCoef did   100 forward-backward iterations
 EnCoef did     5 forward-backward iterations
 Error on total polarization charges =  0.01481
 SCF Done:  E(RB3LYP) =  -8711.00671590     A.U. after   17 cycles
            NFock= 17  Conv=0.69D-08     -V/T= 2.0109

 **********************************************************************

            Population analysis using the SCF density.

 **********************************************************************

 Orbital symmetries:
       Occupied  (A1) (B2) (A1) (A1) (A1) (B2) (A1) (A1) (B1) (B2)
                 (B2) (A1) (A1) (B2) (B1) (A2) (B2) (A2) (A1) (B1)
                 (B1) (A1) (A1) (A1) (B2) (A1) (A1) (B1) (B2) (A1)
                 (B1) (B2) (B2) (A1) (A1) (B2) (B1) (A2) (A1) (A1)
                 (B1) (B2) (A2) (A1) (B2) (A1) (B2) (A1) (A2) (B1)
                 (A2) (B1) (B2) (A1) (B1) (A1) (B2) (A1) (B1) (A2)
                 (B2) (A1) (A1) (A1) (B2) (A1) (B1) (A1) (B1) (A2)
                 (B1) (B2) (A1) (A1) (A1) (B2) (A2) (B1) (B2) (A1)
                 (B1) (A1) (A2) (A2) (B2) (B1) (B2) (B2) (B1) (A1)
                 (B2) (B2) (B1) (A2)
       Virtual   (A1) (B1) (A1) (A1) (A1) (B2) (B1) (A1) (B2) (A1)
                 (B1) (A2) (B1) (A1) (B2) (A1) (B2) (A2) (B1) (A1)
                 (A1) (A1) (B2) (B2) (A1) (A2) (B1) (B2) (A1) (A2)
                 (B2) (B1) (B2) (A1) (B1) (A1) (A2) (A1) (B1) (A1)
                 (B2) (B1) (A1) (A2) (B2) (B1) (A1) (A2) (B1) (B2)
                 (A2) (A1) (A1) (B1) (B2) (A2) (A1) (A1) (B1) (B2)
                 (B1) (A1) (B2) (A1) (B2) (B1) (A1) (A1) (A2) (B2)
                 (B1) (A2) (A1) (B2) (B1) (A2) (A1) (B1) (B2) (A1)
                 (B2) (B1) (A2) (A1) (B1) (A1) (B1) (A1) (B2) (A2)
                 (B2) (B1) (A2) (A2) (B2) (A1) (A1) (B1) (A2) (B2)
                 (A1) (B1) (A2) (B2) (A1) (B1) (A1) (A2) (B1) (B2)
                 (A2) (B1) (A1) (B2) (A1) (B1) (A1) (B2) (A2) (A2)
                 (B2) (B1) (A1) (B2) (A1) (A1)
 The electronic state is 1-A1.
 Alpha  occ. eigenvalues -- -482.75507-482.73688-482.73687-101.44966 -62.43664
 Alpha  occ. eigenvalues --  -62.41862 -62.41861 -56.26862 -56.26559 -56.26554
 Alpha  occ. eigenvalues --  -56.25065 -56.25064 -56.24766 -56.24765 -56.24732
 Alpha  occ. eigenvalues --  -56.24731 -19.14312 -19.14309 -19.14307 -19.14305
 Alpha  occ. eigenvalues --  -14.49558 -14.49553  -9.40316  -8.65431  -8.63647
 Alpha  occ. eigenvalues --   -8.63646  -7.17120  -7.16285  -7.16257  -6.48652
 Alpha  occ. eigenvalues --   -6.47556  -6.47536  -6.46896  -6.46896  -6.45803
 Alpha  occ. eigenvalues --   -6.45802  -6.45694  -6.45694  -4.02821  -2.60098
 Alpha  occ. eigenvalues --   -2.59793  -2.59777  -2.58916  -2.58916  -2.58342
 Alpha  occ. eigenvalues --   -2.58340  -2.58059  -2.58059  -2.57976  -2.57976
 Alpha  occ. eigenvalues --   -2.57114  -2.57114  -2.57110  -2.57110  -2.24831
 Alpha  occ. eigenvalues --   -2.23855  -2.23691  -1.09306  -1.08874  -0.93077
 Alpha  occ. eigenvalues --   -0.93046  -0.76747  -0.73600  -0.72165  -0.71158
 Alpha  occ. eigenvalues --   -0.67151  -0.63373  -0.50916  -0.47509  -0.46985
 Alpha  occ. eigenvalues --   -0.46568  -0.45884  -0.44425  -0.42124  -0.40770
 Alpha  occ. eigenvalues --   -0.40427  -0.38066  -0.35581  -0.31597  -0.31420
 Alpha  occ. eigenvalues --   -0.28613  -0.28581  -0.27195  -0.26939  -0.26907
 Alpha  occ. eigenvalues --   -0.26538  -0.26315  -0.25096  -0.25042  -0.24978
 Alpha  occ. eigenvalues --   -0.24511  -0.22611  -0.22473  -0.20420
 Alpha virt. eigenvalues --   -0.14736  -0.09566  -0.09414  -0.03406   0.05441
 Alpha virt. eigenvalues --    0.05643   0.06736   0.15329   0.18072   0.19169
 Alpha virt. eigenvalues --    0.19556   0.20562   0.26091   0.27213   0.28022
 Alpha virt. eigenvalues --    0.33994   0.36023   0.39160   0.39573   0.43144
 Alpha virt. eigenvalues --    0.45389   0.48390   0.51078   0.53924   0.54633
 Alpha virt. eigenvalues --    0.54907   0.55799   0.56003   0.56937   0.57361
 Alpha virt. eigenvalues --    0.59402   0.59762   0.61019   0.61498   0.63717
 Alpha virt. eigenvalues --    0.64086   0.64654   0.68473   0.68830   0.70897
 Alpha virt. eigenvalues --    0.73465   0.74285   0.75016   0.78219   0.80293
 Alpha virt. eigenvalues --    0.80956   0.83245   0.85299   0.89749   0.90950
 Alpha virt. eigenvalues --    0.91016   0.91300   0.92797   0.93721   0.95252
 Alpha virt. eigenvalues --    0.98378   0.98594   0.99337   1.00120   1.02332
 Alpha virt. eigenvalues --    1.03405   1.03527   1.05922   1.11854   1.12181
 Alpha virt. eigenvalues --    1.12649   1.13751   1.15597   1.18085   1.20428
 Alpha virt. eigenvalues --    1.23094   1.24537   1.26159   1.28063   1.31266
 Alpha virt. eigenvalues --    1.38504   1.42651   1.44172   1.45413   1.48052
 Alpha virt. eigenvalues --    1.92359   1.95288   1.96386   1.96442   1.99881
 Alpha virt. eigenvalues --    2.10088   2.30201   2.33012   2.33434   2.33592
 Alpha virt. eigenvalues --    2.64934   2.65701   2.65905   2.66664   2.67347
 Alpha virt. eigenvalues --    2.67812   2.68682   2.69446   2.75648   2.76069
 Alpha virt. eigenvalues --    2.97439   2.98002   3.01174   3.01260   3.21098
 Alpha virt. eigenvalues --    3.23297   3.44421   3.44601   3.44906   3.46749
 Alpha virt. eigenvalues --    3.46917   3.46946   3.48312   3.51242   3.53206
 Alpha virt. eigenvalues --    3.56183   3.59298   3.62351   3.65705   3.67472
 Alpha virt. eigenvalues --    3.68006   3.72294   3.76635   3.78669   3.85199
 Alpha virt. eigenvalues --    9.62426
          Condensed to atoms (all electrons):
               1          2          3          4          5          6
     1  Pt  17.451375   0.221826   0.211986   0.211986   0.244235   0.047221
     2  Br   0.221826  35.005399  -0.034542  -0.034542  -0.003047  -0.015478
     3  Br   0.211986  -0.034542  35.050729  -0.004448  -0.025981  -0.014038
     4  Br   0.211986  -0.034542  -0.004448  35.050729  -0.025981  -0.014038
     5  Cl   0.244235  -0.003047  -0.025981  -0.025981  17.066439  -0.017284
     6  N    0.047221  -0.015478  -0.014038  -0.014038  -0.017284   6.643178
     7  N    0.047221  -0.015478  -0.014038  -0.014038  -0.017284  -0.004730
     8  O   -0.014131   0.000232   0.000399  -0.023176  -0.001051   0.181333
     9  O   -0.014131   0.000232  -0.023176   0.000399  -0.001051   0.181333
    10  O   -0.014131   0.000232   0.000399  -0.023176  -0.001051   0.000100
    11  O   -0.014131   0.000232  -0.023176   0.000399  -0.001051   0.000100
               7          8          9         10         11
     1  Pt   0.047221  -0.014131  -0.014131  -0.014131  -0.014131
     2  Br  -0.015478   0.000232   0.000232   0.000232   0.000232
     3  Br  -0.014038   0.000399  -0.023176   0.000399  -0.023176
     4  Br  -0.014038  -0.023176   0.000399  -0.023176   0.000399
     5  Cl  -0.017284  -0.001051  -0.001051  -0.001051  -0.001051
     6  N   -0.004730   0.181333   0.181333   0.000100   0.000100
     7  N    6.643178   0.000100   0.000100   0.181333   0.181333
     8  O    0.000100   8.216379  -0.096310  -0.000003   0.000000
     9  O    0.000100  -0.096310   8.216379   0.000000  -0.000003
    10  O    0.181333  -0.000003   0.000000   8.216379  -0.096310
    11  O    0.181333   0.000000  -0.000003  -0.096310   8.216379
 Mulliken charges:
               1
     1  Pt  -0.379324
     2  Br  -0.125066
     3  Br  -0.124115
     4  Br  -0.124115
     5  Cl  -0.216892
     6  N    0.012301
     7  N    0.012301
     8  O   -0.263773
     9  O   -0.263773
    10  O   -0.263773
    11  O   -0.263773
 Sum of Mulliken charges =  -2.00000
 Mulliken charges with hydrogens summed into heavy atoms:
               1
     1  Pt  -0.379324
     2  Br  -0.125066
     3  Br  -0.124115
     4  Br  -0.124115
     5  Cl  -0.216892
     6  N    0.012301
     7  N    0.012301
     8  O   -0.263773
     9  O   -0.263773
    10  O   -0.263773
    11  O   -0.263773
 Electronic spatial extent (au):  <R**2>=           3932.0061
 Charge=             -2.0000 electrons
 Dipole moment (field-independent basis, Debye):
    X=              0.0000    Y=              0.0000    Z=             -4.3879  Tot=              4.3879
 Quadrupole moment (field-independent basis, Debye-Ang):
   XX=           -159.6183   YY=           -156.8678   ZZ=           -149.2202
   XY=              0.0000   XZ=              0.0000   YZ=              0.0000
 Traceless Quadrupole moment (field-independent basis, Debye-Ang):
   XX=             -4.3829   YY=             -1.6324   ZZ=              6.0152
   XY=              0.0000   XZ=              0.0000   YZ=              0.0000
 Octapole moment (field-independent basis, Debye-Ang**2):
  XXX=              0.0000  YYY=              0.0000  ZZZ=            -42.1281  XYY=              0.0000
  XXY=              0.0000  XXZ=            -42.0307  XZZ=              0.0000  YZZ=              0.0000
  YYZ=            -16.7904  XYZ=              0.0000
 Hexadecapole moment (field-independent basis, Debye-Ang**3):
 XXXX=          -1411.1438 YYYY=          -1736.5063 ZZZZ=          -1345.4724 XXXY=              0.0000
 XXXZ=              0.0000 YYYX=              0.0000 YYYZ=              0.0000 ZZZX=              0.0000
 ZZZY=              0.0000 XXYY=           -538.0282 XXZZ=           -445.6716 YYZZ=           -509.3003
 XXYZ=              0.0000 YYXZ=              0.0000 ZZXY=              0.0000
 N-N= 2.473273450632D+03 E-N=-2.576823838006D+04  KE= 8.616703364073D+03
 Symmetry A1   KE= 4.561877720132D+03
 Symmetry A2   KE= 5.024315633772D+02
 Symmetry B1   KE= 8.888827177968D+02
 Symmetry B2   KE= 2.663511362767D+03
   4 Symmetry operations used in ECPInt.
 ECPInt:  NShTT=    3916 NPrTT=   19538 LenC2=    3582 LenP2D=   12267.
 LDataN:  DoStor=T MaxTD1= 7 Len=  274
 D1PCM: PCM CHGder 1st derivatives, ID1Alg=3 FixD1E=F DoIter=F DoCFld=F I1PDM=0.
 Calling FoFJK, ICntrl=      2127 FMM=F ISym2X=1 I1Cent= 0 IOpClX= 0 NMat=1 NMatS=1 NMatT=0.
 Defaulting to unpruned grid for atomic number  78.
 Defaulting to unpruned grid for atomic number  78.
 Defaulting to unpruned grid for atomic number  78.
 Defaulting to unpruned grid for atomic number  78.
 Defaulting to unpruned grid for atomic number  78.
 Defaulting to unpruned grid for atomic number  78.
 Defaulting to unpruned grid for atomic number  78.
 Defaulting to unpruned grid for atomic number  78.
 ***** Axes restored to original set *****
 -------------------------------------------------------------------
 Center     Atomic                   Forces (Hartrees/Bohr)
 Number     Number              X              Y              Z
 -------------------------------------------------------------------
      1       78           0.000000005   -0.064537678    0.000000000
      2       35           0.000000002   -0.034053503    0.000000000
      3       35           0.044494719   -0.006479466    0.000000004
      4       35          -0.044494718   -0.006479472   -0.000000004
      5       17          -0.000000003    0.045327931    0.000000000
      6        7          -0.000000021    0.184052024    0.099154803
      7        7          -0.000000006    0.184052024   -0.099154803
      8        8           0.068857507   -0.075470460   -0.013808663
      9        8          -0.068857494   -0.075470470   -0.013808674
     10        8           0.068857505   -0.075470460    0.013808674
     11        8          -0.068857496   -0.075470470    0.013808663
 -------------------------------------------------------------------
 Cartesian Forces:  Max     0.184052024 RMS     0.065446682

 GradGradGradGradGradGradGradGradGradGradGradGradGradGradGradGradGradGrad
 Berny optimization.
 FormGI is forming the generalized inverse of G from B-inverse, IUseBI=4.
 Internal  Forces:  Max     0.096401914 RMS     0.035627496
 Search for a local minimum.
 Step number   1 out of a maximum of   64
 All quantities printed in internal units (Hartrees-Bohrs-Radians)
 Mixed Optimization -- RFO/linear search
 Second derivative matrix not updated -- first step.
 ITU=  0
     Eigenvalues ---    0.00230   0.00230   0.03396   0.03426   0.06422
     Eigenvalues ---    0.06423   0.11955   0.12615   0.12615   0.12615
     Eigenvalues ---    0.12615   0.19509   0.19509   0.19509   0.20378
     Eigenvalues ---    0.20378   0.22001   0.25000   0.25000   0.25000
     Eigenvalues ---    0.25000   0.25000   0.25000   0.52948   0.52948
     Eigenvalues ---    0.52948   0.52948
 RFO step:  Lambda=-1.55457687D-01 EMin= 2.30000000D-03
 Linear search not attempted -- first point.
 Maximum step size (   0.300) exceeded in Quadratic search.
    -- Step size scaled by   0.554
 Iteration  1 RMS(Cart)=  0.07304778 RMS(Int)=  0.00291277
 Iteration  2 RMS(Cart)=  0.00325260 RMS(Int)=  0.00158127
 Iteration  3 RMS(Cart)=  0.00001197 RMS(Int)=  0.00158124
 Iteration  4 RMS(Cart)=  0.00000007 RMS(Int)=  0.00158124
 ClnCor:  largest displacement from symmetrization is 8.40D-09 for atom     9.
 Variable       Old X    -DE/DX   Delta X   Delta X   Delta X     New X
                                 (Linear)    (Quad)   (Total)
    R1        4.59203   0.03405   0.00000   0.05380   0.05380   4.64583
    R2        4.59203   0.04449   0.00000   0.07029   0.07029   4.66233
    R3        4.59203   0.04449   0.00000   0.07029   0.07029   4.66233
    R4        4.30858   0.04533   0.00000   0.06686   0.06686   4.37543
    R5        3.76056   0.07154   0.00000   0.11028   0.11028   3.87084
    R6        3.76056   0.07154   0.00000   0.11028   0.11028   3.87084
    R7        2.57003  -0.09640   0.00000  -0.07794  -0.07794   2.49208
    R8        2.57003  -0.09640   0.00000  -0.07794  -0.07794   2.49208
    R9        2.57003  -0.09640   0.00000  -0.07794  -0.07794   2.49208
   R10        2.57003  -0.09640   0.00000  -0.07794  -0.07794   2.49208
    A1        1.57080  -0.00372   0.00000  -0.00938  -0.00938   1.56142
    A2        1.57080  -0.00372   0.00000  -0.00938  -0.00938   1.56142
    A3        1.57080   0.01098   0.00000   0.02069   0.02060   1.59140
    A4        1.57080   0.01098   0.00000   0.02069   0.02060   1.59140
    A5        1.57080   0.00372   0.00000   0.00938   0.00938   1.58017
    A6        1.57080   0.00000   0.00000   0.00000   0.00019   1.57099
    A7        1.57080   0.00000   0.00000   0.00000   0.00019   1.57099
    A8        1.57080   0.00372   0.00000   0.00938   0.00938   1.58017
    A9        1.57080   0.00000   0.00000   0.00000   0.00019   1.57099
   A10        1.57080   0.00000   0.00000   0.00000   0.00019   1.57099
   A11        1.57080  -0.01098   0.00000  -0.02069  -0.02060   1.55020
   A12        1.57080  -0.01098   0.00000  -0.02069  -0.02060   1.55020
   A13        1.91063   0.04190   0.00000   0.06988   0.06641   1.97705
   A14        1.91063   0.04190   0.00000   0.06988   0.06641   1.97705
   A15        1.91063  -0.01610   0.00000   0.00330  -0.00239   1.90824
   A16        1.91063   0.04190   0.00000   0.06988   0.06641   1.97705
   A17        1.91063   0.04190   0.00000   0.06988   0.06641   1.97705
   A18        1.91063  -0.01610   0.00000   0.00330  -0.00239   1.90824
   A19        3.14159   0.00000   0.00000   0.00000   0.00000   3.14159
   A20        3.14159  -0.00744   0.00000  -0.01875  -0.01875   3.12284
   A21        3.14159   0.02195   0.00000   0.04139   0.04120   3.18279
   A22        3.14159   0.00000   0.00000   0.00000   0.00000   3.14159
   A23        3.14159   0.00000   0.00000   0.00000   0.00000   3.14159
   A24        3.14159   0.00000   0.00000   0.00000   0.00000   3.14159
    D1       -2.09439   0.01580   0.00000   0.04481   0.04597  -2.04842
    D2        2.09439  -0.01580   0.00000  -0.04481  -0.04597   2.04842
    D3        2.61799   0.01952   0.00000   0.05418   0.05535   2.67334
    D4        0.52360  -0.01208   0.00000  -0.03543  -0.03660   0.48700
    D5       -0.52360   0.01208   0.00000   0.03543   0.03660  -0.48700
    D6       -2.61799  -0.01952   0.00000  -0.05418  -0.05535  -2.67334
    D7        1.04720   0.01580   0.00000   0.04481   0.04597   1.09317
    D8       -1.04720  -0.01580   0.00000  -0.04481  -0.04597  -1.09317
    D9        0.00000   0.00000   0.00000   0.00000   0.00000   0.00000
   D10        2.09440   0.02488   0.00000   0.07694   0.07644   2.17084
   D11       -2.09440  -0.02488   0.00000  -0.07694  -0.07644  -2.17084
   D12        0.00000   0.00000   0.00000   0.00000   0.00000   0.00000
   D13        2.09439  -0.01580   0.00000  -0.04481  -0.04597   2.04842
   D14       -2.09439   0.01580   0.00000   0.04481   0.04597  -2.04842
   D15       -2.61799  -0.01952   0.00000  -0.05418  -0.05535  -2.67334
   D16       -0.52360   0.01208   0.00000   0.03543   0.03660  -0.48700
   D17        0.52360  -0.01208   0.00000  -0.03543  -0.03660   0.48700
   D18        2.61799   0.01952   0.00000   0.05418   0.05535   2.67334
   D19       -1.04720  -0.01580   0.00000  -0.04481  -0.04597  -1.09317
   D20        1.04720   0.01580   0.00000   0.04481   0.04597   1.09317
         Item               Value     Threshold  Converged?
 Maximum Force            0.096402     0.000450     NO 
 RMS     Force            0.035627     0.000300     NO 
 Maximum Displacement     0.215693     0.001800     NO 
 RMS     Displacement     0.071087     0.001200     NO 
 Predicted change in Energy=-7.278721D-02
 GradGradGradGradGradGradGradGradGradGradGradGradGradGradGradGradGradGrad

                          Input orientation:                          
 ---------------------------------------------------------------------
 Center     Atomic      Atomic             Coordinates (Angstroms)
 Number     Number       Type             X           Y           Z
 ---------------------------------------------------------------------
      1         78           0       -0.319549    0.345687    0.000000
      2         35           0       -0.319549   -2.112781    0.000000
      3         35           0        2.147540    0.322556    0.000000
      4         35           0       -2.786638    0.322555    0.000000
      5         17           0       -0.319549    2.661067    0.000000
      6          7           0       -0.319549    0.387879    2.047924
      7          7           0       -0.319549    0.387879   -2.047924
      8          8           0       -1.395396    0.955350    2.557473
      9          8           0        0.756297    0.955350    2.557473
     10          8           0       -1.395395    0.955350   -2.557473
     11          8           0        0.756298    0.955350   -2.557473
 ---------------------------------------------------------------------
                    Distance matrix (angstroms):
                    1          2          3          4          5
     1  Pt   0.000000
     2  Br   2.458469   0.000000
     3  Br   2.467197   3.466611   0.000000
     4  Br   2.467197   3.466611   4.934178   0.000000
     5  Cl   2.315379   4.773848   3.399288   3.399288   0.000000
     6  N    2.048358   3.232227   3.206990   3.206990   3.059636
     7  N    2.048358   3.232227   3.206990   3.206990   3.059636
     8  O    2.840740   4.136610   4.415143   2.979371   3.256928
     9  O    2.840740   4.136610   2.979371   4.415143   3.256928
    10  O    2.840740   4.136610   4.415143   2.979371   3.256928
    11  O    2.840740   4.136610   2.979371   4.415143   3.256928
                    6          7          8          9         10
     6  N    0.000000
     7  N    4.095847   0.000000
     8  O    1.318753   4.763312   0.000000
     9  O    1.318753   4.763312   2.151693   0.000000
    10  O    4.763312   1.318753   5.114946   5.549095   0.000000
    11  O    4.763312   1.318753   5.549095   5.114946   2.151693
                   11
    11  O    0.000000
 Stoichiometry    Br3ClN2O4Pt(2-)
 Framework group  C2V[C2(BrPtCl),SGV(Br2),SGV'(N2),X(O4)]
 Deg. of freedom     9
 Full point group                 C2V     NOp   4
 Largest Abelian subgroup         C2V     NOp   4
 Largest concise Abelian subgroup C2V     NOp   4
                         Standard orientation:                         
 ---------------------------------------------------------------------
 Center     Atomic      Atomic             Coordinates (Angstroms)
 Number     Number       Type             X           Y           Z
 ---------------------------------------------------------------------
      1         78           0        0.000000    0.000000    0.114652
      2         35           0        0.000000    0.000000   -2.343817
      3         35           0        0.000000    2.467089    0.091520
      4         35           0        0.000000   -2.467089    0.091520
      5         17           0        0.000000    0.000000    2.430031
      6          7           0        2.047924    0.000000    0.156843
      7          7           0       -2.047924    0.000000    0.156843
      8          8           0        2.557473   -1.075846    0.724314
      9          8           0        2.557473    1.075846    0.724314
     10          8           0       -2.557473   -1.075846    0.724314
     11          8           0       -2.557473    1.075846    0.724314
 ---------------------------------------------------------------------
 Rotational constants (GHZ):      0.4163550      0.3217627      0.2950910
 Basis read from rwf:  (5D, 7F)
 Pseudo-potential data read from rwf file.
 There are    91 symmetry adapted cartesian basis functions of A1  symmetry.
 There are    35 symmetry adapted cartesian basis functions of A2  symmetry.
 There are    52 symmetry adapted cartesian basis functions of B1  symmetry.
 There are    60 symmetry adapted cartesian basis functions of B2  symmetry.
 There are    80 symmetry adapted basis functions of A1  symmetry.
 There are    34 symmetry adapted basis functions of A2  symmetry.
 There are    50 symmetry adapted basis functions of B1  symmetry.
 There are    56 symmetry adapted basis functions of B2  symmetry.
   220 basis functions,   470 primitive gaussians,   238 cartesian basis functions
    94 alpha electrons       94 beta electrons
       nuclear repulsion energy      2430.7198313212 Hartrees.
 NAtoms=   11 NActive=   11 NUniq=    6 SFac= 3.36D+00 NAtFMM=   60 NAOKFM=F Big=F
 Integral buffers will be    131072 words long.
 Raffenetti 2 integral format.
 Two-electron integral symmetry is turned on.
 ------------------------------------------------------------------------------
 Polarizable Continuum Model (PCM)
 =================================
 Model                : PCM (using non-symmetric T matrix).
 Atomic radii         : UFF (Universal Force Field).
 Polarization charges : Total charges.
 Charge compensation  : None.
 Solution method      : On-the-fly selection.
 Cavity type          : Scaled VdW (van der Waals Surface) (Alpha=1.100).
 Cavity algorithm     : GePol (No added spheres)
                        Default sphere list used, NSphG=   11.
                        Lebedev-Laikov grids with approx.  5.0 points / Ang**2.
                        Smoothing algorithm: Karplus/York (Gamma=1.0000).
                        Polarization charges: spherical gaussians, with
                                              point-specific exponents (IZeta= 3).
                        Self-potential: point-specific (ISelfS= 7).
                        Self-field    : sphere-specific E.n sum rule (ISelfD= 2).
 1st derivatives      : Analytical E(r).r(x)/FMM algorithm (CHGder, D1EAlg=3).
                        Cavity 1st derivative terms included.
 Solvent              : Water, Eps=  78.355300 Eps(inf)=   1.777849
 ------------------------------------------------------------------------------
 Spheres list:
 ISph  on   Nord     Re0    Alpha      Xe            Ye            Ze
    1  Pt      1    1.3770  1.100      0.000000      0.000000      0.114652
    2  Br      2    2.0945  1.100      0.000000      0.000000     -2.343817
    3  Br      3    2.0945  1.100      0.000000      2.467089      0.091520
    4  Br      4    2.0945  1.100      0.000000     -2.467089      0.091520
    5  Cl      5    1.9735  1.100      0.000000      0.000000      2.430031
    6   N      6    1.8300  1.100      2.047924      0.000000      0.156843
    7   N      7    1.8300  1.100     -2.047924      0.000000      0.156843
    8   O      8    1.7500  1.100      2.557473     -1.075846      0.724314
    9   O      9    1.7500  1.100      2.557473      1.075846      0.724314
   10   O     10    1.7500  1.100     -2.557473     -1.075846      0.724314
   11   O     11    1.7500  1.100     -2.557473      1.075846      0.724314
 ------------------------------------------------------------------------------
 One-electron integrals computed using PRISM.
   4 Symmetry operations used in ECPInt.
 ECPInt:  NShTT=    3916 NPrTT=   19538 LenC2=    3580 LenP2D=   12158.
 LDataN:  DoStor=T MaxTD1= 6 Len=  172
 NBasis=   220 RedAO= T EigKep=  4.56D-03  NBF=    80    34    50    56
 NBsUse=   220 1.00D-06 EigRej= -1.00D+00 NBFU=    80    34    50    56
 Defaulting to unpruned grid for atomic number  78.
 Initial guess from the checkpoint file:  "/home/scr/diego/Gau-28621.chk"
 B after Tr=     0.000000    0.000000    0.000000
         Rot=    1.000000    0.000000    0.000000    0.000000 Ang=   0.00 deg.
 Initial guess orbital symmetries:
       Occupied  (A1) (B2) (A1) (A1) (A1) (B2) (A1) (A1) (B1) (B2)
                 (B2) (A1) (A1) (B2) (B1) (A2) (B2) (A2) (A1) (B1)
                 (B1) (A1) (A1) (A1) (B2) (A1) (A1) (B1) (B2) (A1)
                 (B1) (B2) (B2) (A1) (A1) (B2) (B1) (A2) (A1) (A1)
                 (B1) (B2) (A2) (A1) (B2) (A1) (B2) (A1) (A2) (B1)
                 (A2) (B1) (B2) (A1) (B1) (A1) (B2) (A1) (B1) (A2)
                 (B2) (A1) (A1) (A1) (B2) (A1) (B1) (A1) (B1) (A2)
                 (B1) (B2) (A1) (A1) (A1) (B2) (A2) (B1) (B2) (A1)
                 (B1) (A1) (A2) (A2) (B2) (B1) (B2) (B2) (B1) (A1)
                 (B2) (B2) (B1) (A2)
       Virtual   (A1) (A1) (A1) (A1) (A1) (A1) (A1) (A1) (A1) (A1)
                 (A1) (A1) (A1) (A1) (A1) (A1) (A1) (A1) (A1) (A1)
                 (A1) (A1) (A1) (A1) (A1) (A1) (A1) (A1) (A1) (A1)
                 (A1) (A1) (A1) (A1) (A1) (A1) (A1) (A1) (A1) (A1)
                 (A1) (A1) (A1) (A1) (A2) (A2) (A2) (A2) (A2) (A2)
                 (A2) (A2) (A2) (A2) (A2) (A2) (A2) (A2) (A2) (A2)
                 (A2) (A2) (A2) (A2) (A2) (A2) (B1) (B1) (B1) (B1)
                 (B1) (B1) (B1) (B1) (B1) (B1) (B1) (B1) (B1) (B1)
                 (B1) (B1) (B1) (B1) (B1) (B1) (B1) (B1) (B1) (B1)
                 (B1) (B1) (B1) (B1) (B1) (B1) (B2) (B2) (B2) (B2)
                 (B2) (B2) (B2) (B2) (B2) (B2) (B2) (B2) (B2) (B2)
                 (B2) (B2) (B2) (B2) (B2) (B2) (B2) (B2) (B2) (B2)
                 (B2) (B2) (B2) (B2) (B2) (B2)
 ExpMin= 2.90D-02 ExpMax= 1.13D+05 ExpMxC= 1.70D+04 IAcc=3 IRadAn=         5 AccDes= 0.00D+00
 Harris functional with IExCor=  402 and IRadAn=       5 diagonalized for initial guess.
 HarFok:  IExCor=  402 AccDes= 0.00D+00 IRadAn=         5 IDoV= 1 UseB2=F ITyADJ=14
 ICtDFT=  3500011 ScaDFX=  1.000000  1.000000  1.000000  1.000000
 Defaulting to unpruned grid for atomic number  78.
 Defaulting to unpruned grid for atomic number  78.
 Defaulting to unpruned grid for atomic number  78.
 Defaulting to unpruned grid for atomic number  78.
 Defaulting to unpruned grid for atomic number  78.
 Defaulting to unpruned grid for atomic number  78.
 Defaulting to unpruned grid for atomic number  78.
 Defaulting to unpruned grid for atomic number  78.
 FoFCou: FMM=F IPFlag=           0 FMFlag=      100000 FMFlg1=           0
         NFxFlg=           0 DoJE=T BraDBF=F KetDBF=T FulRan=T
         wScrn=  0.000000 ICntrl=     500 IOpCl=  0 I1Cent=   200000004 NGrid=           0
         NMat0=    1 NMatS0=      1 NMatT0=    0 NMatD0=    1 NMtDS0=    0 NMtDT0=    0
 Petite list used in FoFCou.
 Keep R1 ints in memory in symmetry-blocked form, NReq=370004390.
 Requested convergence on RMS density matrix=1.00D-08 within 128 cycles.
 Requested convergence on MAX density matrix=1.00D-06.
 Requested convergence on             energy=1.00D-06.
 No special actions if energy rises.
 Defaulting to unpruned grid for atomic number  78.
 Defaulting to unpruned grid for atomic number  78.
 Defaulting to unpruned grid for atomic number  78.
 Defaulting to unpruned grid for atomic number  78.
 Defaulting to unpruned grid for atomic number  78.
 Defaulting to unpruned grid for atomic number  78.
 Defaulting to unpruned grid for atomic number  78.
 Defaulting to unpruned grid for atomic number  78.
 Inv3:  Mode=1 IEnd=     8426928.
 Iteration    1 A*A^-1 deviation from unit magnitude is 6.44D-15 for     10.
 Iteration    1 A*A^-1 deviation from orthogonality  is 4.24D-15 for    827    294.
 Iteration    1 A^-1*A deviation from unit magnitude is 6.66D-15 for    119.
 Iteration    1 A^-1*A deviation from orthogonality  is 1.73D-15 for    617    354.
 Error on total polarization charges =  0.01425
 SCF Done:  E(RB3LYP) =  -8711.07941535     A.U. after   12 cycles
            NFock= 12  Conv=0.49D-08     -V/T= 2.0110
   4 Symmetry operations used in ECPInt.
 ECPInt:  NShTT=    3916 NPrTT=   19538 LenC2=    3580 LenP2D=   12158.
 LDataN:  DoStor=T MaxTD1= 7 Len=  274
 D1PCM: PCM CHGder 1st derivatives, ID1Alg=3 FixD1E=F DoIter=F DoCFld=F I1PDM=0.
 Calling FoFJK, ICntrl=      2127 FMM=F ISym2X=1 I1Cent= 0 IOpClX= 0 NMat=1 NMatS=1 NMatT=0.
 Defaulting to unpruned grid for atomic number  78.
 Defaulting to unpruned grid for atomic number  78.
 Defaulting to unpruned grid for atomic number  78.
 Defaulting to unpruned grid for atomic number  78.
 Defaulting to unpruned grid for atomic number  78.
 Defaulting to unpruned grid for atomic number  78.
 Defaulting to unpruned grid for atomic number  78.
 Defaulting to unpruned grid for atomic number  78.
 ***** Axes restored to original set *****
 -------------------------------------------------------------------
 Center     Atomic                   Forces (Hartrees/Bohr)
 Number     Number              X              Y              Z
 -------------------------------------------------------------------
      1       78           0.000000004   -0.049913586    0.000000000
      2       35           0.000000002   -0.023689371    0.000000000
      3       35           0.028746695   -0.004017962    0.000000002
      4       35          -0.028746694   -0.004017966   -0.000000002
      5       17          -0.000000002    0.031378743    0.000000000
      6        7          -0.000000019    0.162418793    0.089603790
      7        7          -0.000000005    0.162418793   -0.089603790
      8        8           0.043920567   -0.068644358   -0.026196914
      9        8          -0.043920553   -0.068644364   -0.026196921
     10        8           0.043920563   -0.068644358    0.026196921
     11        8          -0.043920557   -0.068644364    0.026196914
 -------------------------------------------------------------------
 Cartesian Forces:  Max     0.162418793 RMS     0.056097585

 GradGradGradGradGradGradGradGradGradGradGradGradGradGradGradGradGradGrad
 Berny optimization.
 Using GEDIIS/GDIIS optimizer.
 FormGI is forming the generalized inverse of G from B-inverse, IUseBI=4.
 Internal  Forces:  Max     0.075491093 RMS     0.025557961
 Search for a local minimum.
 Step number   2 out of a maximum of   64
 All quantities printed in internal units (Hartrees-Bohrs-Radians)
 Mixed Optimization -- RFO/linear search
 Update second derivatives using D2CorX and points    1    2
 DE= -7.27D-02 DEPred=-7.28D-02 R= 9.99D-01
 TightC=F SS=  1.41D+00  RLast= 3.66D-01 DXNew= 5.0454D-01 1.0975D+00
 Trust test= 9.99D-01 RLast= 3.66D-01 DXMaxT set to 5.05D-01
 ITU=  1  0
 Use linear search instead of GDIIS.
 Linear search step of   0.594 exceeds DXMaxT=   0.505 but not scaled.
 Quartic linear search produced a step of  2.00000.
 Iteration  1 RMS(Cart)=  0.12571673 RMS(Int)=  0.01345475
 Iteration  2 RMS(Cart)=  0.00870058 RMS(Int)=  0.00825172
 Iteration  3 RMS(Cart)=  0.00012408 RMS(Int)=  0.00825047
 Iteration  4 RMS(Cart)=  0.00000271 RMS(Int)=  0.00825047
 Iteration  5 RMS(Cart)=  0.00000005 RMS(Int)=  0.00825047
 ClnCor:  largest displacement from symmetrization is 2.15D-08 for atom     9.
 Variable       Old X    -DE/DX   Delta X   Delta X   Delta X     New X
                                 (Linear)    (Quad)   (Total)
    R1        4.64583   0.02369   0.10760   0.00000   0.10760   4.75343
    R2        4.66233   0.02878   0.14059   0.00000   0.14059   4.80291
    R3        4.66233   0.02878   0.14059   0.00000   0.14059   4.80291
    R4        4.37543   0.03138   0.13371   0.00000   0.13371   4.50915
    R5        3.87084   0.03772   0.22056   0.00000   0.22056   4.09140
    R6        3.87084   0.03772   0.22056   0.00000   0.22056   4.09140
    R7        2.49208  -0.07549  -0.15589   0.00000  -0.15589   2.33619
    R8        2.49208  -0.07549  -0.15589   0.00000  -0.15589   2.33619
    R9        2.49208  -0.07549  -0.15589   0.00000  -0.15589   2.33619
   R10        2.49208  -0.07549  -0.15589   0.00000  -0.15589   2.33619
    A1        1.56142  -0.00219  -0.01875   0.00000  -0.01876   1.54266
    A2        1.56142  -0.00219  -0.01875   0.00000  -0.01876   1.54266
    A3        1.59140   0.00899   0.04120   0.00000   0.03984   1.63124
    A4        1.59140   0.00899   0.04120   0.00000   0.03984   1.63124
    A5        1.58017   0.00219   0.01875   0.00000   0.01876   1.59893
    A6        1.57099   0.00013   0.00039   0.00000   0.00151   1.57250
    A7        1.57099   0.00013   0.00039   0.00000   0.00151   1.57250
    A8        1.58017   0.00219   0.01875   0.00000   0.01876   1.59893
    A9        1.57099   0.00013   0.00039   0.00000   0.00151   1.57250
   A10        1.57099   0.00013   0.00039   0.00000   0.00151   1.57250
   A11        1.55020  -0.00899  -0.04120   0.00000  -0.03984   1.51035
   A12        1.55020  -0.00899  -0.04120   0.00000  -0.03984   1.51035
   A13        1.97705   0.01172   0.13283   0.00000   0.11172   2.08877
   A14        1.97705   0.01172   0.13283   0.00000   0.11172   2.08877
   A15        1.90824   0.00851  -0.00478   0.00000  -0.03143   1.87682
   A16        1.97705   0.01172   0.13283   0.00000   0.11172   2.08877
   A17        1.97705   0.01172   0.13283   0.00000   0.11172   2.08877
   A18        1.90824   0.00851  -0.00478   0.00000  -0.03143   1.87682
   A19        3.14159   0.00000   0.00000   0.00000   0.00000   3.14159
   A20        3.12284  -0.00437  -0.03750   0.00000  -0.03751   3.08533
   A21        3.18279   0.01797   0.08240   0.00000   0.07969   3.26248
   A22        3.14159   0.00000   0.00000   0.00000   0.00000   3.14159
   A23        3.14159   0.00000   0.00000   0.00000   0.00000   3.14159
   A24        3.14159   0.00000   0.00000   0.00000   0.00000   3.14159
    D1       -2.04842   0.01557   0.09194   0.00000   0.09691  -1.95151
    D2        2.04842  -0.01557  -0.09194   0.00000  -0.09691   1.95151
    D3        2.67334   0.01775   0.11069   0.00000   0.11562   2.78896
    D4        0.48700  -0.01338  -0.07320   0.00000  -0.07821   0.40879
    D5       -0.48700   0.01338   0.07320   0.00000   0.07821  -0.40879
    D6       -2.67334  -0.01775  -0.11069   0.00000  -0.11562  -2.78896
    D7        1.09317   0.01557   0.09194   0.00000   0.09691   1.19008
    D8       -1.09317  -0.01557  -0.09194   0.00000  -0.09691  -1.19008
    D9        0.00000   0.00000   0.00000   0.00000   0.00000   0.00000
   D10        2.17084   0.02384   0.15288   0.00000   0.14747   2.31831
   D11       -2.17084  -0.02384  -0.15288   0.00000  -0.14747  -2.31831
   D12        0.00000   0.00000   0.00000   0.00000   0.00000   0.00000
   D13        2.04842  -0.01557  -0.09194   0.00000  -0.09691   1.95151
   D14       -2.04842   0.01557   0.09194   0.00000   0.09691  -1.95151
   D15       -2.67334  -0.01775  -0.11069   0.00000  -0.11562  -2.78896
   D16       -0.48700   0.01338   0.07320   0.00000   0.07821  -0.40879
   D17        0.48700  -0.01338  -0.07320   0.00000  -0.07821   0.40879
   D18        2.67334   0.01775   0.11069   0.00000   0.11562   2.78896
   D19       -1.09317  -0.01557  -0.09194   0.00000  -0.09691  -1.19008
   D20        1.09317   0.01557   0.09194   0.00000   0.09691   1.19008
         Item               Value     Threshold  Converged?
 Maximum Force            0.075491     0.000450     NO 
 RMS     Force            0.025558     0.000300     NO 
 Maximum Displacement     0.360021     0.001800     NO 
 RMS     Displacement     0.126501     0.001200     NO 
 Predicted change in Energy=-6.663563D-02
 GradGradGradGradGradGradGradGradGradGradGradGradGradGradGradGradGradGrad

                          Input orientation:                          
 ---------------------------------------------------------------------
 Center     Atomic      Atomic             Coordinates (Angstroms)
 Number     Number       Type             X           Y           Z
 ---------------------------------------------------------------------
      1         78           0       -0.319549    0.352941    0.000000
      2         35           0       -0.319549   -2.162464    0.000000
      3         35           0        2.221038    0.281448    0.000000
      4         35           0       -2.860136    0.281447    0.000000
      5         17           0       -0.319549    2.739079    0.000000
      6          7           0       -0.319549    0.483726    2.161121
      7          7           0       -0.319549    0.483726   -2.161121
      8          8           0       -1.316739    0.919085    2.747988
      9          8           0        0.677641    0.919085    2.747988
     10          8           0       -1.316738    0.919085   -2.747988
     11          8           0        0.677641    0.919085   -2.747988
 ---------------------------------------------------------------------
                    Distance matrix (angstroms):
                    1          2          3          4          5
     1  Pt   0.000000
     2  Br   2.515406   0.000000
     3  Br   2.541592   3.525236   0.000000
     4  Br   2.541592   3.525236   5.081173   0.000000
     5  Cl   2.386137   4.901543   3.534760   3.534760   0.000000
     6  N    2.165074   3.416543   3.341547   3.341547   3.123629
     7  N    2.165074   3.416543   3.341547   3.341547   3.123629
     8  O    2.977641   4.247561   4.524807   3.215602   3.443574
     9  O    2.977641   4.247561   3.215602   4.524807   3.443574
    10  O    2.977641   4.247561   4.524807   3.215602   3.443574
    11  O    2.977641   4.247561   3.215602   4.524807   3.443574
                    6          7          8          9         10
     6  N    0.000000
     7  N    4.322241   0.000000
     8  O    1.236260   5.028247   0.000000
     9  O    1.236260   5.028247   1.994379   0.000000
    10  O    5.028247   1.236260   5.495976   5.846649   0.000000
    11  O    5.028247   1.236260   5.846649   5.495976   1.994379
                   11
    11  O    0.000000
 Stoichiometry    Br3ClN2O4Pt(2-)
 Framework group  C2V[C2(BrPtCl),SGV(Br2),SGV'(N2),X(O4)]
 Deg. of freedom     9
 Full point group                 C2V     NOp   4
 Largest Abelian subgroup         C2V     NOp   4
 Largest concise Abelian subgroup C2V     NOp   4
                         Standard orientation:                         
 ---------------------------------------------------------------------
 Center     Atomic      Atomic             Coordinates (Angstroms)
 Number     Number       Type             X           Y           Z
 ---------------------------------------------------------------------
      1         78           0        0.000000    0.000000    0.132243
      2         35           0        0.000000    0.000000   -2.383162
      3         35           0        0.000000    2.540587    0.060749
      4         35           0        0.000000   -2.540587    0.060749
      5         17           0        0.000000    0.000000    2.518381
      6          7           0        2.161121    0.000000    0.263028
      7          7           0       -2.161121    0.000000    0.263028
      8          8           0        2.747988   -0.997190    0.698387
      9          8           0        2.747988    0.997190    0.698387
     10          8           0       -2.747988   -0.997190    0.698387
     11          8           0       -2.747988    0.997190    0.698387
 ---------------------------------------------------------------------
 Rotational constants (GHZ):      0.3826351      0.2979250      0.2824551
 Basis read from rwf:  (5D, 7F)
 Pseudo-potential data read from rwf file.
 There are    91 symmetry adapted cartesian basis functions of A1  symmetry.
 There are    35 symmetry adapted cartesian basis functions of A2  symmetry.
 There are    52 symmetry adapted cartesian basis functions of B1  symmetry.
 There are    60 symmetry adapted cartesian basis functions of B2  symmetry.
 There are    80 symmetry adapted basis functions of A1  symmetry.
 There are    34 symmetry adapted basis functions of A2  symmetry.
 There are    50 symmetry adapted basis functions of B1  symmetry.
 There are    56 symmetry adapted basis functions of B2  symmetry.
   220 basis functions,   470 primitive gaussians,   238 cartesian basis functions
    94 alpha electrons       94 beta electrons
       nuclear repulsion energy      2357.6004091610 Hartrees.
 NAtoms=   11 NActive=   11 NUniq=    6 SFac= 3.36D+00 NAtFMM=   60 NAOKFM=F Big=F
 Integral buffers will be    131072 words long.
 Raffenetti 2 integral format.
 Two-electron integral symmetry is turned on.
 ------------------------------------------------------------------------------
 Polarizable Continuum Model (PCM)
 =================================
 Model                : PCM (using non-symmetric T matrix).
 Atomic radii         : UFF (Universal Force Field).
 Polarization charges : Total charges.
 Charge compensation  : None.
 Solution method      : On-the-fly selection.
 Cavity type          : Scaled VdW (van der Waals Surface) (Alpha=1.100).
 Cavity algorithm     : GePol (No added spheres)
                        Default sphere list used, NSphG=   11.
                        Lebedev-Laikov grids with approx.  5.0 points / Ang**2.
                        Smoothing algorithm: Karplus/York (Gamma=1.0000).
                        Polarization charges: spherical gaussians, with
                                              point-specific exponents (IZeta= 3).
                        Self-potential: point-specific (ISelfS= 7).
                        Self-field    : sphere-specific E.n sum rule (ISelfD= 2).
 1st derivatives      : Analytical E(r).r(x)/FMM algorithm (CHGder, D1EAlg=3).
                        Cavity 1st derivative terms included.
 Solvent              : Water, Eps=  78.355300 Eps(inf)=   1.777849
 ------------------------------------------------------------------------------
 Spheres list:
 ISph  on   Nord     Re0    Alpha      Xe            Ye            Ze
    1  Pt      1    1.3770  1.100      0.000000      0.000000      0.132243
    2  Br      2    2.0945  1.100      0.000000      0.000000     -2.383162
    3  Br      3    2.0945  1.100      0.000000      2.540587      0.060749
    4  Br      4    2.0945  1.100      0.000000     -2.540587      0.060749
    5  Cl      5    1.9735  1.100      0.000000      0.000000      2.518381
    6   N      6    1.8300  1.100      2.161121      0.000000      0.263028
    7   N      7    1.8300  1.100     -2.161121      0.000000      0.263028
    8   O      8    1.7500  1.100      2.747988     -0.997190      0.698387
    9   O      9    1.7500  1.100      2.747988      0.997190      0.698387
   10   O     10    1.7500  1.100     -2.747988     -0.997190      0.698387
   11   O     11    1.7500  1.100     -2.747988      0.997190      0.698387
 ------------------------------------------------------------------------------
 One-electron integrals computed using PRISM.
   4 Symmetry operations used in ECPInt.
 ECPInt:  NShTT=    3916 NPrTT=   19538 LenC2=    3542 LenP2D=   11973.
 LDataN:  DoStor=T MaxTD1= 6 Len=  172
 NBasis=   220 RedAO= T EigKep=  4.17D-03  NBF=    80    34    50    56
 NBsUse=   220 1.00D-06 EigRej= -1.00D+00 NBFU=    80    34    50    56
 Defaulting to unpruned grid for atomic number  78.
 Initial guess from the checkpoint file:  "/home/scr/diego/Gau-28621.chk"
 B after Tr=     0.000000    0.000000    0.000000
         Rot=    1.000000    0.000000    0.000000    0.000000 Ang=   0.00 deg.
 Initial guess orbital symmetries:
       Occupied  (A1) (B2) (A1) (A1) (A1) (B2) (A1) (A1) (B1) (B2)
                 (B2) (A1) (A1) (B2) (B1) (A2) (B2) (A2) (A1) (B1)
                 (B1) (A1) (A1) (A1) (B2) (A1) (A1) (B1) (B2) (A1)
                 (B1) (B2) (B2) (A1) (A1) (B2) (B1) (A2) (A1) (A1)
                 (B1) (B2) (A2) (A1) (B2) (A1) (B2) (A1) (A2) (B1)
                 (B1) (A2) (A1) (B2) (B1) (A1) (B2) (A1) (B1) (A2)
                 (B2) (A1) (A1) (A1) (B2) (A1) (B1) (A1) (B1) (B1)
                 (A2) (B2) (A1) (A1) (A1) (B2) (A2) (B1) (A1) (B2)
                 (A1) (B1) (A2) (B2) (A2) (B1) (B2) (B2) (B1) (A1)
                 (B2) (B1) (B2) (A2)
       Virtual   (A1) (A1) (A1) (A1) (A1) (A1) (A1) (A1) (A1) (A1)
                 (A1) (A1) (A1) (A1) (A1) (A1) (A1) (A1) (A1) (A1)
                 (A1) (A1) (A1) (A1) (A1) (A1) (A1) (A1) (A1) (A1)
                 (A1) (A1) (A1) (A1) (A1) (A1) (A1) (A1) (A1) (A1)
                 (A1) (A1) (A1) (A1) (A2) (A2) (A2) (A2) (A2) (A2)
                 (A2) (A2) (A2) (A2) (A2) (A2) (A2) (A2) (A2) (A2)
                 (A2) (A2) (A2) (A2) (A2) (A2) (B1) (B1) (B1) (B1)
                 (B1) (B1) (B1) (B1) (B1) (B1) (B1) (B1) (B1) (B1)
                 (B1) (B1) (B1) (B1) (B1) (B1) (B1) (B1) (B1) (B1)
                 (B1) (B1) (B1) (B1) (B1) (B1) (B2) (B2) (B2) (B2)
                 (B2) (B2) (B2) (B2) (B2) (B2) (B2) (B2) (B2) (B2)
                 (B2) (B2) (B2) (B2) (B2) (B2) (B2) (B2) (B2) (B2)
                 (B2) (B2) (B2) (B2) (B2) (B2)
 ExpMin= 2.90D-02 ExpMax= 1.13D+05 ExpMxC= 1.70D+04 IAcc=3 IRadAn=         5 AccDes= 0.00D+00
 Harris functional with IExCor=  402 and IRadAn=       5 diagonalized for initial guess.
 HarFok:  IExCor=  402 AccDes= 0.00D+00 IRadAn=         5 IDoV= 1 UseB2=F ITyADJ=14
 ICtDFT=  3500011 ScaDFX=  1.000000  1.000000  1.000000  1.000000
 Defaulting to unpruned grid for atomic number  78.
 Defaulting to unpruned grid for atomic number  78.
 Defaulting to unpruned grid for atomic number  78.
 Defaulting to unpruned grid for atomic number  78.
 Defaulting to unpruned grid for atomic number  78.
 Defaulting to unpruned grid for atomic number  78.
 Defaulting to unpruned grid for atomic number  78.
 Defaulting to unpruned grid for atomic number  78.
 FoFCou: FMM=F IPFlag=           0 FMFlag=      100000 FMFlg1=           0
         NFxFlg=           0 DoJE=T BraDBF=F KetDBF=T FulRan=T
         wScrn=  0.000000 ICntrl=     500 IOpCl=  0 I1Cent=   200000004 NGrid=           0
         NMat0=    1 NMatS0=      1 NMatT0=    0 NMatD0=    1 NMtDS0=    0 NMtDT0=    0
 Petite list used in FoFCou.
 Keep R1 ints in memory in symmetry-blocked form, NReq=370004390.
 Requested convergence on RMS density matrix=1.00D-08 within 128 cycles.
 Requested convergence on MAX density matrix=1.00D-06.
 Requested convergence on             energy=1.00D-06.
 No special actions if energy rises.
 Defaulting to unpruned grid for atomic number  78.
 Defaulting to unpruned grid for atomic number  78.
 Defaulting to unpruned grid for atomic number  78.
 Defaulting to unpruned grid for atomic number  78.
 Defaulting to unpruned grid for atomic number  78.
 Defaulting to unpruned grid for atomic number  78.
 Defaulting to unpruned grid for atomic number  78.
 Defaulting to unpruned grid for atomic number  78.
 Inv3:  Mode=1 IEnd=     9250608.
 Iteration    1 A*A^-1 deviation from unit magnitude is 6.44D-15 for     39.
 Iteration    1 A*A^-1 deviation from orthogonality  is 4.58D-15 for    734    186.
 Iteration    1 A^-1*A deviation from unit magnitude is 7.55D-15 for   1469.
 Iteration    1 A^-1*A deviation from orthogonality  is 4.28D-14 for   1095    719.
 Error on total polarization charges =  0.01340
 SCF Done:  E(RB3LYP) =  -8711.14042083     A.U. after   13 cycles
            NFock= 13  Conv=0.29D-08     -V/T= 2.0109
   4 Symmetry operations used in ECPInt.
 ECPInt:  NShTT=    3916 NPrTT=   19538 LenC2=    3542 LenP2D=   11973.
 LDataN:  DoStor=T MaxTD1= 7 Len=  274
 D1PCM: PCM CHGder 1st derivatives, ID1Alg=3 FixD1E=F DoIter=F DoCFld=F I1PDM=0.
 Calling FoFJK, ICntrl=      2127 FMM=F ISym2X=1 I1Cent= 0 IOpClX= 0 NMat=1 NMatS=1 NMatT=0.
 Defaulting to unpruned grid for atomic number  78.
 Defaulting to unpruned grid for atomic number  78.
 Defaulting to unpruned grid for atomic number  78.
 Defaulting to unpruned grid for atomic number  78.
 Defaulting to unpruned grid for atomic number  78.
 Defaulting to unpruned grid for atomic number  78.
 Defaulting to unpruned grid for atomic number  78.
 Defaulting to unpruned grid for atomic number  78.
 ***** Axes restored to original set *****
 -------------------------------------------------------------------
 Center     Atomic                   Forces (Hartrees/Bohr)
 Number     Number              X              Y              Z
 -------------------------------------------------------------------
      1       78           0.000000002   -0.024505360    0.000000000
      2       35           0.000000000   -0.006589872    0.000000000
      3       35           0.005633554   -0.000371794    0.000000000
      4       35          -0.005633554   -0.000371795    0.000000000
      5       17          -0.000000001    0.008490936    0.000000000
      6        7          -0.000000012    0.097815951    0.057367287
      7        7          -0.000000003    0.097815951   -0.057367287
      8        8          -0.054134539   -0.043071008   -0.029854064
      9        8           0.054134550   -0.043071000   -0.029854055
     10        8          -0.054134544   -0.043071008    0.029854055
     11        8           0.054134545   -0.043071000    0.029854064
 -------------------------------------------------------------------
 Cartesian Forces:  Max     0.097815951 RMS     0.038614418

 GradGradGradGradGradGradGradGradGradGradGradGradGradGradGradGradGradGrad
 Berny optimization.
 Using GEDIIS/GDIIS optimizer.
 FormGI is forming the generalized inverse of G from B-inverse, IUseBI=4.
 Internal  Forces:  Max     0.079758048 RMS     0.021530997
 Search for a local minimum.
 Step number   3 out of a maximum of   64
 All quantities printed in internal units (Hartrees-Bohrs-Radians)
 Mixed Optimization -- RFO/linear search
 Update second derivatives using D2CorX and points    2    3
 ITU=  0  1  0
 Use linear search instead of GDIIS.
     Eigenvalues ---    0.00230   0.00230   0.01324   0.01326   0.06403
     Eigenvalues ---    0.06465   0.10553   0.11871   0.12397   0.12751
     Eigenvalues ---    0.13366   0.15705   0.19509   0.19509   0.19824
     Eigenvalues ---    0.20375   0.21810   0.24679   0.24920   0.24927
     Eigenvalues ---    0.25000   0.25000   0.33573   0.52948   0.52948
     Eigenvalues ---    0.52948   0.63083
 RFO step:  Lambda=-8.75073274D-02 EMin= 2.30000000D-03
 Quartic linear search produced a step of -0.00863.
 Iteration  1 RMS(Cart)=  0.05571252 RMS(Int)=  0.01059583
 Iteration  2 RMS(Cart)=  0.01116093 RMS(Int)=  0.00115161
 Iteration  3 RMS(Cart)=  0.00008755 RMS(Int)=  0.00114898
 Iteration  4 RMS(Cart)=  0.00000012 RMS(Int)=  0.00114898
 ClnCor:  largest displacement from symmetrization is 1.32D-08 for atom     5.
 Variable       Old X    -DE/DX   Delta X   Delta X   Delta X     New X
                                 (Linear)    (Quad)   (Total)
    R1        4.75343   0.00659  -0.00093   0.04068   0.03975   4.79318
    R2        4.80291   0.00564  -0.00121   0.04304   0.04182   4.84474
    R3        4.80291   0.00564  -0.00121   0.04304   0.04182   4.84474
    R4        4.50915   0.00849  -0.00115   0.04922   0.04807   4.55722
    R5        4.09140  -0.00163  -0.00190   0.03131   0.02941   4.12080
    R6        4.09140  -0.00163  -0.00190   0.03131   0.02941   4.12080
    R7        2.33619   0.01433   0.00134  -0.01714  -0.01580   2.32039
    R8        2.33619   0.01433   0.00134  -0.01714  -0.01580   2.32039
    R9        2.33619   0.01433   0.00134  -0.01714  -0.01580   2.32039
   R10        2.33619   0.01433   0.00134  -0.01714  -0.01580   2.32039
    A1        1.54266  -0.00013   0.00016  -0.00409  -0.00394   1.53872
    A2        1.54266  -0.00013   0.00016  -0.00409  -0.00394   1.53872
    A3        1.63124   0.00654  -0.00034   0.03178   0.03204   1.66328
    A4        1.63124   0.00654  -0.00034   0.03178   0.03204   1.66328
    A5        1.59893   0.00013  -0.00016   0.00409   0.00394   1.60287
    A6        1.57250   0.00019  -0.00001   0.00114   0.00126   1.57376
    A7        1.57250   0.00019  -0.00001   0.00114   0.00126   1.57376
    A8        1.59893   0.00013  -0.00016   0.00409   0.00394   1.60287
    A9        1.57250   0.00019  -0.00001   0.00114   0.00126   1.57376
   A10        1.57250   0.00019  -0.00001   0.00114   0.00126   1.57376
   A11        1.51035  -0.00654   0.00034  -0.03178  -0.03204   1.47831
   A12        1.51035  -0.00654   0.00034  -0.03178  -0.03204   1.47831
   A13        2.08877  -0.04239  -0.00096  -0.05398  -0.05763   2.03114
   A14        2.08877  -0.04239  -0.00096  -0.05398  -0.05763   2.03114
   A15        1.87682   0.07976   0.00027   0.23269   0.22953   2.10635
   A16        2.08877  -0.04239  -0.00096  -0.05398  -0.05763   2.03114
   A17        2.08877  -0.04239  -0.00096  -0.05398  -0.05763   2.03114
   A18        1.87682   0.07976   0.00027   0.23269   0.22953   2.10635
   A19        3.14159   0.00000   0.00000   0.00000   0.00000   3.14159
   A20        3.08533  -0.00026   0.00032  -0.00818  -0.00788   3.07745
[...]
     11        8          -0.000002143   -0.000001709    0.000005590
 -------------------------------------------------------------------
 Cartesian Forces:  Max     0.000044816 RMS     0.000011424
 FormGI is forming the generalized inverse of G from B-inverse, IUseBI=4.

 GradGradGradGradGradGradGradGradGradGradGradGradGradGradGradGradGradGrad
 Berny optimization.
 Internal  Forces:  Max     0.000036100 RMS     0.000007781
 Search for a local minimum.
 Step number   1 out of a maximum of    2
 All quantities printed in internal units (Hartrees-Bohrs-Radians)
 Second derivative matrix not updated -- analytic derivatives used.
 ITU=  0
     Eigenvalues ---   -0.00577  -0.00239   0.01257   0.01659   0.02959
     Eigenvalues ---    0.03352   0.04057   0.05427   0.05647   0.06410
     Eigenvalues ---    0.07221   0.07843   0.07897   0.07902   0.08173
     Eigenvalues ---    0.09436   0.10998   0.13960   0.17495   0.26626
     Eigenvalues ---    0.31450   0.32218   0.36991   0.57148   0.57610
     Eigenvalues ---    0.83179   0.85494
 Eigenvalue     1 is  -5.77D-03 should be greater than     0.000000 Eigenvector:
                          D4        D6        D15       D17       D3
   1                    0.25978   0.25978  -0.25978  -0.25978   0.25978
                          D16       D5        D18       D2        D13
   1                   -0.25978   0.25978  -0.25978   0.24667  -0.24667
 Eigenvalue     2 is  -2.39D-03 should be greater than     0.000000 Eigenvector:
                          D10       D12       D9        D11       D14
   1                    0.35354   0.35354   0.35354   0.35354   0.17678
                          D20       D8        D2        D13       D19
   1                    0.17678   0.17678   0.17678   0.17678   0.17678
 Angle between quadratic step and forces=  22.87 degrees.
 Linear search not attempted -- first point.
 Iteration  1 RMS(Cart)=  0.00014575 RMS(Int)=  0.00000000
 Iteration  2 RMS(Cart)=  0.00000000 RMS(Int)=  0.00000000
 ClnCor:  largest displacement from symmetrization is 7.45D-09 for atom     4.
 Variable       Old X    -DE/DX   Delta X   Delta X   Delta X     New X
                                 (Linear)    (Quad)   (Total)
    R1        4.80633   0.00004   0.00000   0.00042   0.00042   4.80675
    R2        4.86755   0.00001   0.00000   0.00020   0.00020   4.86775
    R3        4.86755   0.00001   0.00000   0.00020   0.00020   4.86775
    R4        4.57252   0.00000   0.00000  -0.00005  -0.00005   4.57247
    R5        4.09831  -0.00002   0.00000  -0.00031  -0.00031   4.09800
    R6        4.09831  -0.00002   0.00000  -0.00031  -0.00031   4.09800
    R7        2.30327   0.00000   0.00000   0.00000   0.00000   2.30328
    R8        2.30327   0.00000   0.00000   0.00000   0.00000   2.30328
    R9        2.30327   0.00000   0.00000   0.00000   0.00000   2.30328
   R10        2.30327   0.00000   0.00000   0.00000   0.00000   2.30328
    A1        1.56931   0.00000   0.00000  -0.00009  -0.00009   1.56922
    A2        1.56931   0.00000   0.00000  -0.00009  -0.00009   1.56922
    A3        1.57277   0.00000   0.00000   0.00002   0.00002   1.57279
    A4        1.57277   0.00000   0.00000   0.00002   0.00002   1.57279
    A5        1.57228   0.00000   0.00000   0.00009   0.00009   1.57237
    A6        1.57080   0.00000   0.00000   0.00000   0.00000   1.57080
    A7        1.57080   0.00000   0.00000   0.00000   0.00000   1.57080
    A8        1.57228   0.00000   0.00000   0.00009   0.00009   1.57237
    A9        1.57080   0.00000   0.00000   0.00000   0.00000   1.57080
   A10        1.57080   0.00000   0.00000   0.00000   0.00000   1.57080
   A11        1.56882   0.00000   0.00000  -0.00002  -0.00002   1.56880
   A12        1.56882   0.00000   0.00000  -0.00002  -0.00002   1.56880
   A13        2.07270   0.00000   0.00000   0.00001   0.00001   2.07270
   A14        2.07270   0.00000   0.00000   0.00001   0.00001   2.07270
   A15        2.13778   0.00001   0.00000  -0.00001  -0.00001   2.13777
   A16        2.07270   0.00000   0.00000   0.00001   0.00001   2.07270
   A17        2.07270   0.00000   0.00000   0.00001   0.00001   2.07270
   A18        2.13778   0.00001   0.00000  -0.00001  -0.00001   2.13777
   A19        3.14159   0.00000   0.00000   0.00000   0.00000   3.14159
   A20        3.13862  -0.00001   0.00000  -0.00018  -0.00018   3.13844
   A21        3.14555   0.00000   0.00000   0.00004   0.00004   3.14559
   A22        3.14159   0.00000   0.00000   0.00000   0.00000   3.14159
   A23        3.14159   0.00000   0.00000   0.00000   0.00000   3.14159
   A24        3.14159   0.00000   0.00000   0.00000   0.00000   3.14159
    D1       -1.57307   0.00000   0.00000   0.00000   0.00000  -1.57306
    D2        1.57307   0.00000   0.00000   0.00000   0.00000   1.57306
    D3        3.14081   0.00000   0.00000   0.00009   0.00009   3.14090
    D4        0.00376   0.00000   0.00000   0.00008   0.00008   0.00384
    D5       -0.00376   0.00000   0.00000  -0.00008  -0.00008  -0.00384
    D6       -3.14081   0.00000   0.00000  -0.00009  -0.00009  -3.14090
    D7        1.56853   0.00000   0.00000   0.00000   0.00000   1.56853
    D8       -1.56853   0.00000   0.00000   0.00000   0.00000  -1.56853
    D9        0.00000   0.00000   0.00000   0.00000   0.00000   0.00000
   D10        3.13488   0.00000   0.00000  -0.00001  -0.00001   3.13487
   D11       -3.13488   0.00000   0.00000   0.00001   0.00001  -3.13487
   D12        0.00000   0.00000   0.00000   0.00000   0.00000   0.00000
   D13        1.57307   0.00000   0.00000   0.00000   0.00000   1.57306
   D14       -1.57307   0.00000   0.00000   0.00000   0.00000  -1.57306
   D15       -3.14081   0.00000   0.00000  -0.00009  -0.00009  -3.14090
   D16       -0.00376   0.00000   0.00000  -0.00008  -0.00008  -0.00384
   D17        0.00376   0.00000   0.00000   0.00008   0.00008   0.00384
   D18        3.14081   0.00000   0.00000   0.00009   0.00009   3.14090
   D19       -1.56853   0.00000   0.00000   0.00000   0.00000  -1.56853
   D20        1.56853   0.00000   0.00000   0.00000   0.00000   1.56853
         Item               Value     Threshold  Converged?
 Maximum Force            0.000036     0.000450     YES
 RMS     Force            0.000008     0.000300     YES
 Maximum Displacement     0.000357     0.001800     YES
 RMS     Displacement     0.000146     0.001200     YES
 Predicted change in Energy=-2.000051D-08
 Optimization completed.
    -- Stationary point found.
                           ----------------------------
                           !   Optimized Parameters   !
                           ! (Angstroms and Degrees)  !
 --------------------------                            --------------------------
 ! Name  Definition              Value          Derivative Info.                !
 --------------------------------------------------------------------------------
 ! R1    R(1,2)                  2.5434         -DE/DX =    0.0                 !
 ! R2    R(1,3)                  2.5758         -DE/DX =    0.0                 !
 ! R3    R(1,4)                  2.5758         -DE/DX =    0.0                 !
 ! R4    R(1,5)                  2.4197         -DE/DX =    0.0                 !
 ! R5    R(1,6)                  2.1687         -DE/DX =    0.0                 !
 ! R6    R(1,7)                  2.1687         -DE/DX =    0.0                 !
 ! R7    R(6,8)                  1.2188         -DE/DX =    0.0                 !
 ! R8    R(6,9)                  1.2188         -DE/DX =    0.0                 !
 ! R9    R(7,10)                 1.2188         -DE/DX =    0.0                 !
 ! R10   R(7,11)                 1.2188         -DE/DX =    0.0                 !
 ! A1    A(2,1,3)               89.9148         -DE/DX =    0.0                 !
 ! A2    A(2,1,4)               89.9148         -DE/DX =    0.0                 !
 ! A3    A(2,1,6)               90.1133         -DE/DX =    0.0                 !
 ! A4    A(2,1,7)               90.1133         -DE/DX =    0.0                 !
 ! A5    A(3,1,5)               90.0852         -DE/DX =    0.0                 !
 ! A6    A(3,1,6)               90.0002         -DE/DX =    0.0                 !
 ! A7    A(3,1,7)               90.0002         -DE/DX =    0.0                 !
 ! A8    A(4,1,5)               90.0852         -DE/DX =    0.0                 !
 ! A9    A(4,1,6)               90.0002         -DE/DX =    0.0                 !
 ! A10   A(4,1,7)               90.0002         -DE/DX =    0.0                 !
 ! A11   A(5,1,6)               89.8867         -DE/DX =    0.0                 !
 ! A12   A(5,1,7)               89.8867         -DE/DX =    0.0                 !
 ! A13   A(1,6,8)              118.7568         -DE/DX =    0.0                 !
 ! A14   A(1,6,9)              118.7568         -DE/DX =    0.0                 !
 ! A15   A(8,6,9)              122.4858         -DE/DX =    0.0                 !
 ! A16   A(1,7,10)             118.7568         -DE/DX =    0.0                 !
 ! A17   A(1,7,11)             118.7568         -DE/DX =    0.0                 !
 ! A18   A(10,7,11)            122.4858         -DE/DX =    0.0                 !
 ! A19   L(2,1,5,3,-1)         180.0            -DE/DX =    0.0                 !
 ! A20   L(3,1,4,2,-1)         179.8297         -DE/DX =    0.0                 !
 ! A21   L(6,1,7,2,-1)         180.2266         -DE/DX =    0.0                 !
 ! A22   L(2,1,5,3,-2)         180.0            -DE/DX =    0.0                 !
 ! A23   L(3,1,4,2,-2)         180.0            -DE/DX =    0.0                 !
 ! A24   L(6,1,7,2,-2)         180.0            -DE/DX =    0.0                 !
 ! D1    D(2,1,6,8)            -90.1301         -DE/DX =    0.0                 !
 ! D2    D(2,1,6,9)             90.1301         -DE/DX =    0.0                 !
 ! D3    D(3,1,6,8)            179.9551         -DE/DX =    0.0                 !
 ! D4    D(3,1,6,9)              0.2152         -DE/DX =    0.0                 !
 ! D5    D(4,1,6,8)             -0.2152         -DE/DX =    0.0                 !
 ! D6    D(4,1,6,9)           -179.9551         -DE/DX =    0.0                 !
 ! D7    D(5,1,6,8)             89.8699         -DE/DX =    0.0                 !
 ! D8    D(5,1,6,9)            -89.8699         -DE/DX =    0.0                 !
 ! D9    D(8,6,7,10)             0.0            -DE/DX =    0.0                 !
 ! D10   D(8,6,7,11)           179.6155         -DE/DX =    0.0                 !
 ! D11   D(9,6,7,10)          -179.6155         -DE/DX =    0.0                 !
 ! D12   D(9,6,7,11)             0.0            -DE/DX =    0.0                 !
 ! D13   D(2,1,7,10)            90.1301         -DE/DX =    0.0                 !
 ! D14   D(2,1,7,11)           -90.1301         -DE/DX =    0.0                 !
 ! D15   D(3,1,7,10)          -179.9551         -DE/DX =    0.0                 !
 ! D16   D(3,1,7,11)            -0.2152         -DE/DX =    0.0                 !
 ! D17   D(4,1,7,10)             0.2152         -DE/DX =    0.0                 !
 ! D18   D(4,1,7,11)           179.9551         -DE/DX =    0.0                 !
 ! D19   D(5,1,7,10)           -89.8699         -DE/DX =    0.0                 !
 ! D20   D(5,1,7,11)            89.8699         -DE/DX =    0.0                 !
 --------------------------------------------------------------------------------
 GradGradGradGradGradGradGradGradGradGradGradGradGradGradGradGradGradGrad

 1\1\GINC-NEQC17\Freq\RB3LYP\Gen\Br3Cl1N2O4Pt1(2-)\DIEGO\18-Aug-2021\0\
 \#N Geom=AllCheck Guess=TCheck SCRF=Check GenChk RB3LYP/ChkBas Freq\\E
 strutura 12\\-2,1\Pt,-0.3195489514,0.5661418157,0.\Br,-0.3195487652,-1
 .9772604833,0.\Br,2.2562440055,0.5623135775,0.0000002038\Br,-2.8953419
 078,0.5623132003,-0.0000002038\Cl,-0.3195491286,2.9858137845,0.\N,-0.3
 195491233,0.5704301552,2.1687273515\N,-0.3195487802,0.5704301552,-2.16
 87273515\O,-1.3880661381,0.5740150607,2.7550973604\O,0.7489677981,0.57
 40152172,2.7550975295\O,-1.3880657021,0.5740150607,-2.7550975295\O,0.7
 489682341,0.5740152172,-2.7550973604\\Version=EM64L-G09RevD.01\State=1
 -A1\HF=-8711.2083202\RMSD=3.879e-09\RMSF=1.142e-05\ZeroPoint=0.0265798
 \Thermal=0.04059\Dipole=0.,-0.7948557,0.\DipoleDeriv=1.3567774,0.,0.,0
 .,1.2601401,0.,0.,0.,0.9629398,-0.0255488,0.,0.,0.,-1.185428,0.,0.,0.,
 -0.1243958,-1.4888114,0.0028433,0.,-0.0206687,-0.1272815,0.,-0.0000001
 ,0.,-0.0915578,-1.4888114,-0.0028435,-0.0000001,0.0206685,-0.1272815,0
 .,-0.0000001,0.,-0.0915579,-0.1107682,0.,0.,0.0000001,-1.4072052,0.,0.
 ,0.,-0.1660063,2.2107887,0.0000001,0.,0.0000001,0.4213623,0.0139589,0.
 ,0.1151483,2.6723817,2.2107887,0.0000001,0.,0.0000002,0.4213623,-0.013
 9589,0.,-0.1151483,2.6723817,-1.1661039,0.0156603,0.578798,0.0062692,-
 0.3139171,-0.0115668,0.5081532,-0.0399231,-1.9585463,-1.1661037,-0.015
 6604,-0.5787978,-0.0062693,-0.3139171,-0.0115669,-0.5081531,-0.0399232
 ,-1.9585464,-1.1661037,0.0156603,-0.5787978,0.0062692,-0.3139171,0.011
 5668,-0.5081531,0.0399231,-1.9585464,-1.1661039,-0.0156604,0.5787979,-
 0.0062693,-0.3139171,0.0115669,0.5081532,0.0399232,-1.9585463\Polar=27
 8.0394406,0.0000058,200.3672666,0.0000055,0.,209.7171309\PG=C02V [C2(B
 r1Pt1Cl1),SGV(Br2),SGV'(N2),X(O4)]\NImag=2\\0.26518218,0.,0.25815328,0
 .,0.,0.15258832,-0.01472797,0.,0.,0.00898987,0.,-0.07639130,0.,0.,0.08
 406216,0.,0.,-0.01062567,0.,0.,0.00404595,-0.06418467,-0.00043001,0.,0
 .00055752,-0.00348763,0.,0.07735717,0.00002662,-0.01494834,0.,-0.00646
 535,0.00138601,0.,0.00121696,0.00835652,0.,0.,-0.00803121,0.,0.,0.0044
 8635,0.,0.,0.02182866,-0.06418467,0.00043000,0.,0.00055752,0.00348763,
 0.,-0.00983151,-0.00014090,0.,0.07735717,-0.00002662,-0.01494834,0.,0.
 00646535,0.00138601,0.,0.00014090,0.00284458,0.,-0.00121695,0.00835652
 ,0.,0.,-0.00803121,0.,0.,0.00448635,0.,0.,0.00288661,0.,0.,0.02182866,
 -0.01552352,0.,0.,0.00328842,0.,0.,-0.00099335,0.00558789,0.,-0.000993
 35,-0.00558789,0.,0.01445764,0.,-0.08858053,0.,0.,-0.00971334,0.,0.003
 12166,-0.00097910,0.,-0.00312166,-0.00097910,0.,0.,0.10204826,0.,0.,-0
 .01146864,0.,0.,0.00298075,0.,0.,-0.00000561,0.,0.,-0.00000561,0.,0.,0
 .01172859,-0.03861087,0.,0.,-0.00074553,0.,0.,0.00037116,-0.00007631,-
 0.00259335,0.00037116,0.00007631,0.00259336,-0.00084180,0.,0.,0.887808
 73,0.,-0.05903411,-0.00075069,0.,-0.00141112,-0.00471979,0.00000366,-0
 .00001079,0.00003760,-0.00000366,-0.00001079,0.00003760,0.,-0.00110627
 ,0.00517389,0.00000005,0.14197915,0.,0.00023549,-0.05760402,0.,-0.0011
 5540,-0.00405959,0.00241737,-0.00017600,-0.00489134,-0.00241737,-0.000
 17600,-0.00489134,0.,0.00132133,-0.00409541,0.00000003,0.00262275,0.55
 776671,-0.03861087,0.,0.,-0.00074553,0.,0.,0.00037116,-0.00007631,0.00
 259336,0.00037116,0.00007631,-0.00259335,-0.00084180,0.,0.,0.01814283,
 0.,0.,0.88780873,0.,-0.05903411,0.00075069,0.,-0.00141112,0.00471979,0
 .00000366,-0.00001079,-0.00003760,-0.00000366,-0.00001079,-0.00003760,
 0.,-0.00110627,-0.00517389,0.,0.02178172,-0.00004471,0.00000006,0.1419
 7915,0.,-0.00023549,-0.05760402,0.,0.00115540,-0.00405959,-0.00241737,
 0.00017600,-0.00489134,0.00241737,0.00017600,-0.00489134,0.,-0.0013213
 3,-0.00409541,0.,0.00004471,0.00472873,0.00000003,-0.00262275,0.557766
 71,-0.00733490,0.00029503,0.00049178,0.00070643,-0.00019866,-0.0007839
 4,0.00093916,0.00000399,0.00137603,-0.00276290,0.00004028,-0.00865795,
 0.00036194,0.00029537,-0.00090104,-0.43206583,0.00106650,0.21132468,-0
 .00118204,0.00000934,-0.00429448,0.59316491,0.00015168,0.01369586,0.00
 018786,-0.00003936,0.00052318,0.00051616,0.00000543,-0.00013517,-0.000
 00673,0.00029003,0.00181614,0.00047684,-0.00008562,0.00010409,-0.00072
 576,0.00118673,-0.04701681,-0.00126651,-0.00001131,-0.00407708,0.00004
 720,-0.00146911,0.01433921,0.02155053,-0.00032254,0.00019412,0.0005151
 4,-0.00038828,0.00068636,-0.00033722,0.00004744,0.00055697,-0.00513205
 ,0.00066233,-0.00624803,0.00008132,0.00020241,0.00124033,0.21858607,-0
 .00123720,-0.25313177,-0.00364344,-0.00001418,0.00965494,-0.22102423,0
 .00071292,0.21762136,-0.00733490,-0.00029503,-0.00049178,0.00070643,0.
 00019866,0.00078394,-0.00276290,-0.00004028,0.00865795,0.00093916,-0.0
 0000399,-0.00137603,0.00036194,-0.00029537,0.00090104,-0.43206577,-0.0
 0106656,-0.21132471,-0.00118204,-0.00000934,0.00429448,-0.15323952,-0.
 00003115,-0.01058179,0.59316484,-0.00015169,0.01369586,0.00018786,0.00
 003936,0.00052318,0.00051616,-0.00029003,0.00181614,0.00047684,-0.0000
 0543,-0.00013517,-0.00000673,0.00008562,0.00010409,-0.00072576,-0.0011
 8679,-0.04701681,-0.00126654,0.00001131,-0.00407708,0.00004720,0.00003
 113,0.01912626,0.00019757,0.00146920,0.01433921,-0.02155053,-0.0003225
 4,0.00019411,-0.00051514,-0.00038828,0.00068636,0.00513205,0.00066233,
 -0.00624803,0.00033722,0.00004744,0.00055697,-0.00008132,0.00020241,0.
 00124033,-0.21858610,-0.00123723,-0.25313184,0.00364344,-0.00001418,0.
 00965494,0.01058176,0.00019757,0.05388333,0.22102429,0.00071295,0.2176
 2143,-0.00733490,0.00029503,-0.00049178,0.00070643,-0.00019866,0.00078
 394,0.00093916,0.00000399,-0.00137603,-0.00276290,0.00004028,0.0086579
 5,0.00036194,0.00029537,0.00090104,-0.00118204,0.00000934,0.00429448,-
 0.43206577,0.00106650,-0.21132471,0.00381151,-0.00003559,-0.00595086,-
 0.00239875,-0.00003827,-0.00593653,0.59316484,0.00015168,0.01369586,-0
 .00018786,-0.00003936,0.00052318,-0.00051616,0.00000543,-0.00013517,0.
 00000673,0.00029003,0.00181614,-0.00047684,-0.00008562,0.00010409,0.00
 072576,-0.00001131,-0.00407708,-0.00004720,0.00118673,-0.04701681,0.00
 126651,-0.00003559,0.00074773,0.00007396,0.00003827,0.00087659,0.00006
 558,-0.00146911,0.01433921,-0.02155053,0.00032254,0.00019411,-0.000515
 14,0.00038828,0.00068636,0.00033722,-0.00004744,0.00055697,0.00513205,
 -0.00066233,-0.00624803,-0.00008132,-0.00020241,0.00124033,0.00364344,
 0.00001418,0.00965494,-0.21858610,0.00123720,-0.25313184,0.00595086,-0
 .00007396,-0.01328675,-0.00593653,-0.00006558,-0.01117086,0.22102429,-
 0.00071292,0.21762143,-0.00733490,-0.00029503,0.00049178,0.00070643,0.
 00019866,-0.00078394,-0.00276290,-0.00004028,-0.00865795,0.00093916,-0
 .00000399,0.00137603,0.00036194,-0.00029537,-0.00090104,-0.00118204,-0
 .00000934,-0.00429448,-0.43206583,-0.00106656,0.21132468,-0.00239875,0
 .00003827,0.00593653,0.00381151,0.00003559,0.00595086,-0.15323952,-0.0
 0003115,0.01058176,0.59316491,-0.00015169,0.01369586,-0.00018786,0.000
 03936,0.00052318,-0.00051616,-0.00029003,0.00181614,-0.00047684,-0.000
 00543,-0.00013517,0.00000673,0.00008562,0.00010409,0.00072576,0.000011
 31,-0.00407708,-0.00004720,-0.00118679,-0.04701682,0.00126654,-0.00003
 827,0.00087659,0.00006558,0.00003559,0.00074773,0.00007396,0.00003113,
 0.01912626,-0.00019757,0.00146920,0.01433921,0.02155053,0.00032254,0.0
 0019412,0.00051514,0.00038828,0.00068636,-0.00513205,-0.00066233,-0.00
 624803,-0.00033722,-0.00004744,0.00055697,0.00008132,-0.00020241,0.001
 24033,-0.00364344,0.00001418,0.00965494,0.21858607,0.00123723,-0.25313
 177,0.00593653,-0.00006558,-0.01117086,-0.00595086,-0.00007396,-0.0132
 8675,-0.01058179,-0.00019757,0.05388333,-0.22102423,-0.00071295,0.2176
 2136\\0.,-0.00004482,0.,0.,0.00003610,0.,-0.00001379,0.00000509,0.,0.0
 0001379,0.00000509,0.,0.,-0.00000011,0.,0.,-0.00000409,0.00001368,0.,-
 0.00000409,-0.00001368,-0.00000214,0.00000171,0.00000559,0.00000214,0.
 00000171,0.00000559,-0.00000214,0.00000171,-0.00000559,0.00000214,0.00
 000171,-0.00000559\\\@


 THE TEST OF A FIRST RATE INTELLIGENCE IS THE ABILITY TO HOLD TWO OPPOSED
 IDEAS IN THE MIND AT THE SAME TIME, AND STILL RETAIN THE ABILITY TO FUNCTION.
 ONE SHOULD, FOR EXAMPLE, BE ABLE TO SEE THAT THINGS ARE HOPELESS AND YET BE
 DETERMINED TO MAKE THEM OTHERWISE.

                                                       -- F. SCOTT FITZGERALD
 Job cpu time:       0 days  0 hours 11 minutes 40.1 seconds.
 File lengths (MBytes):  RWF=    125 Int=      0 D2E=      0 Chk=      9 Scr=      1
 Normal termination of Gaussian 09 at Wed Aug 18 02:53:20 2021.
