 Entering Gaussian System, Link 0=g09
 Input=estrutura13_D2O.com
 Output=estrutura13_D2O.log
 Initial command:
 /home/scr/programs/g09/l1.exe "/home/scr/diego/Gau-29669.inp" -scrdir="/home/scr/diego/"
 Entering Link 1 = /home/scr/programs/g09/l1.exe PID=     29671.
  
 Copyright (c) 1988,1990,1992,1993,1995,1998,2003,2009,2013,
            Gaussian, Inc.  All Rights Reserved.
  
 This is part of the Gaussian(R) 09 program.  It is based on
 the Gaussian(R) 03 system (copyright 2003, Gaussian, Inc.),
 the Gaussian(R) 98 system (copyright 1998, Gaussian, Inc.),
 the Gaussian(R) 94 system (copyright 1995, Gaussian, Inc.),
 the Gaussian 92(TM) system (copyright 1992, Gaussian, Inc.),
 the Gaussian 90(TM) system (copyright 1990, Gaussian, Inc.),
 the Gaussian 88(TM) system (copyright 1988, Gaussian, Inc.),
 the Gaussian 86(TM) system (copyright 1986, Carnegie Mellon
 University), and the Gaussian 82(TM) system (copyright 1983,
 Carnegie Mellon University). Gaussian is a federally registered
 trademark of Gaussian, Inc.
  
 This software contains proprietary and confidential information,
 including trade secrets, belonging to Gaussian, Inc.
  
 This software is provided under written license and may be
 used, copied, transmitted, or stored only in accord with that
 written license.
  
 The following legend is applicable only to US Government
 contracts under FAR:
  
                    RESTRICTED RIGHTS LEGEND
  
 Use, reproduction and disclosure by the US Government is
 subject to restrictions as set forth in subparagraphs (a)
 and (c) of the Commercial Computer Software - Restricted
 Rights clause in FAR 52.227-19.
  
 Gaussian, Inc.
 340 Quinnipiac St., Bldg. 40, Wallingford CT 06492
  
  
 ---------------------------------------------------------------
 Warning -- This program may not be used in any manner that
 competes with the business of Gaussian, Inc. or will provide
 assistance to any competitor of Gaussian, Inc.  The licensee
 of this program is prohibited from giving any competitor of
 Gaussian, Inc. access to this program.  By using this program,
 the user acknowledges that Gaussian, Inc. is engaged in the
 business of creating and licensing software in the field of
 computational chemistry and represents and warrants to the
 licensee that it is not a competitor of Gaussian, Inc. and that
 it will not use this program in any manner prohibited above.
 ---------------------------------------------------------------
  

 Cite this work as:
 Gaussian 09, Revision D.01,
 M. J. Frisch, G. W. Trucks, H. B. Schlegel, G. E. Scuseria, 
 M. A. Robb, J. R. Cheeseman, G. Scalmani, V. Barone, B. Mennucci, 
 G. A. Petersson, H. Nakatsuji, M. Caricato, X. Li, H. P. Hratchian, 
 A. F. Izmaylov, J. Bloino, G. Zheng, J. L. Sonnenberg, M. Hada, 
 M. Ehara, K. Toyota, R. Fukuda, J. Hasegawa, M. Ishida, T. Nakajima, 
 Y. Honda, O. Kitao, H. Nakai, T. Vreven, J. A. Montgomery, Jr., 
 J. E. Peralta, F. Ogliaro, M. Bearpark, J. J. Heyd, E. Brothers, 
 K. N. Kudin, V. N. Staroverov, T. Keith, R. Kobayashi, J. Normand, 
 K. Raghavachari, A. Rendell, J. C. Burant, S. S. Iyengar, J. Tomasi, 
 M. Cossi, N. Rega, J. M. Millam, M. Klene, J. E. Knox, J. B. Cross, 
 V. Bakken, C. Adamo, J. Jaramillo, R. Gomperts, R. E. Stratmann, 
 O. Yazyev, A. J. Austin, R. Cammi, C. Pomelli, J. W. Ochterski, 
 R. L. Martin, K. Morokuma, V. G. Zakrzewski, G. A. Voth, 
 P. Salvador, J. J. Dannenberg, S. Dapprich, A. D. Daniels, 
 O. Farkas, J. B. Foresman, J. V. Ortiz, J. Cioslowski, 
 and D. J. Fox, Gaussian, Inc., Wallingford CT, 2013.
 
 ******************************************
 Gaussian 09:  EM64L-G09RevD.01 24-Apr-2013
                18-Aug-2021 
 ******************************************
 %mem=15gb
 %nproc=8
 Will use up to    8 processors via shared memory.
 ------------------------------------------------------------
 #b3lyp/gen pseudo=read opt freq=noraman scrf=(solvent=water)
 ------------------------------------------------------------
 1/14=-1,18=20,19=15,26=3,38=1/1,3;
 2/9=110,12=2,17=6,18=5,40=1/2;
 3/5=7,11=2,16=1,17=8,25=1,30=1,70=2201,71=1,72=1,74=-5/1,2,3;
 4//1;
 5/5=2,38=5,53=1/2;
 6/7=2,8=2,9=2,10=2,28=1/1;
 7//1,2,3,16;
 1/14=-1,18=20,19=15,26=3/3(2);
 2/9=110/2;
 99//99;
 2/9=110/2;
 3/5=7,6=1,11=2,16=1,17=8,25=1,30=1,70=2205,71=1,72=1,74=-5,82=7/1,2,3;
 4/5=5,16=3,69=1/1;
 5/5=2,38=5,53=1/2;
 7//1,2,3,16;
 1/14=-1,18=20,19=15,26=3/3(-5);
 2/9=110/2;
 6/7=2,8=2,9=2,10=2,19=2,28=1/1;
 99/9=1/99;
 ------------
 Estrutura 13
 ------------
 Symbolic Z-matrix:
 Charge = -2 Multiplicity = 1
 Pt                   -0.31955   0.33835   0. 
 Br                   -0.31955  -2.09165   0. 
 Br                    2.11045   0.33835   0. 
 Br                   -2.74955   0.33835   0. 
 N                    -0.31955   0.33835   1.99 
 N                    -0.31955   0.33835  -1.99 
 O                    -1.42998   0.97946   2.44333 
 O                     0.79089   0.97946   2.44333 
 O                    -1.42998   0.97946  -2.44333 
 O                     0.79089   0.97946  -2.44333 
 Br                   -0.31955   2.76835   0. 
 

 GradGradGradGradGradGradGradGradGradGradGradGradGradGradGradGradGradGrad
 Berny optimization.
 Initialization pass.
                           ----------------------------
                           !    Initial Parameters    !
                           ! (Angstroms and Degrees)  !
 --------------------------                            --------------------------
 ! Name  Definition              Value          Derivative Info.                !
 --------------------------------------------------------------------------------
 ! R1    R(1,2)                  2.43           estimate D2E/DX2                !
 ! R2    R(1,3)                  2.43           estimate D2E/DX2                !
 ! R3    R(1,4)                  2.43           estimate D2E/DX2                !
 ! R4    R(1,5)                  1.99           estimate D2E/DX2                !
 ! R5    R(1,6)                  1.99           estimate D2E/DX2                !
 ! R6    R(1,11)                 2.43           estimate D2E/DX2                !
 ! R7    R(5,7)                  1.36           estimate D2E/DX2                !
 ! R8    R(5,8)                  1.36           estimate D2E/DX2                !
 ! R9    R(6,9)                  1.36           estimate D2E/DX2                !
 ! R10   R(6,10)                 1.36           estimate D2E/DX2                !
 ! A1    A(2,1,3)               90.0            estimate D2E/DX2                !
 ! A2    A(2,1,4)               90.0            estimate D2E/DX2                !
 ! A3    A(2,1,5)               90.0            estimate D2E/DX2                !
 ! A4    A(2,1,6)               90.0            estimate D2E/DX2                !
 ! A5    A(3,1,5)               90.0            estimate D2E/DX2                !
 ! A6    A(3,1,6)               90.0            estimate D2E/DX2                !
 ! A7    A(3,1,11)              90.0            estimate D2E/DX2                !
 ! A8    A(4,1,5)               90.0            estimate D2E/DX2                !
 ! A9    A(4,1,6)               90.0            estimate D2E/DX2                !
 ! A10   A(4,1,11)              90.0            estimate D2E/DX2                !
 ! A11   A(5,1,11)              90.0            estimate D2E/DX2                !
 ! A12   A(6,1,11)              90.0            estimate D2E/DX2                !
 ! A13   A(1,5,7)              109.4712         estimate D2E/DX2                !
 ! A14   A(1,5,8)              109.4712         estimate D2E/DX2                !
 ! A15   A(7,5,8)              109.4713         estimate D2E/DX2                !
 ! A16   A(1,6,9)              109.4712         estimate D2E/DX2                !
 ! A17   A(1,6,10)             109.4712         estimate D2E/DX2                !
 ! A18   A(9,6,10)             109.4713         estimate D2E/DX2                !
 ! A19   L(2,1,11,3,-1)        180.0            estimate D2E/DX2                !
 ! A20   L(3,1,4,2,-1)         180.0            estimate D2E/DX2                !
 ! A21   L(5,1,6,2,-1)         180.0            estimate D2E/DX2                !
 ! A22   L(2,1,11,3,-2)        180.0            estimate D2E/DX2                !
 ! A23   L(3,1,4,2,-2)         180.0            estimate D2E/DX2                !
 ! A24   L(5,1,6,2,-2)         180.0            estimate D2E/DX2                !
 ! D1    D(2,1,5,7)           -120.0            estimate D2E/DX2                !
 ! D2    D(2,1,5,8)            120.0            estimate D2E/DX2                !
 ! D3    D(3,1,5,7)            150.0            estimate D2E/DX2                !
 ! D4    D(3,1,5,8)             30.0            estimate D2E/DX2                !
 ! D5    D(4,1,5,7)            -30.0            estimate D2E/DX2                !
 ! D6    D(4,1,5,8)           -150.0            estimate D2E/DX2                !
 ! D7    D(11,1,5,7)            60.0            estimate D2E/DX2                !
 ! D8    D(11,1,5,8)           -60.0            estimate D2E/DX2                !
 ! D9    D(7,5,6,9)              0.0            estimate D2E/DX2                !
 ! D10   D(7,5,6,10)           120.0            estimate D2E/DX2                !
 ! D11   D(8,5,6,9)           -120.0            estimate D2E/DX2                !
 ! D12   D(8,5,6,10)             0.0            estimate D2E/DX2                !
 ! D13   D(2,1,6,9)            120.0            estimate D2E/DX2                !
 ! D14   D(2,1,6,10)          -120.0            estimate D2E/DX2                !
 ! D15   D(3,1,6,9)           -150.0            estimate D2E/DX2                !
 ! D16   D(3,1,6,10)           -30.0            estimate D2E/DX2                !
 ! D17   D(4,1,6,9)             30.0            estimate D2E/DX2                !
 ! D18   D(4,1,6,10)           150.0            estimate D2E/DX2                !
 ! D19   D(11,1,6,9)           -60.0            estimate D2E/DX2                !
 ! D20   D(11,1,6,10)           60.0            estimate D2E/DX2                !
 --------------------------------------------------------------------------------
 Trust Radius=3.00D-01 FncErr=1.00D-07 GrdErr=1.00D-06
 Number of steps in this run=     64 maximum allowed number of steps=    100.
 GradGradGradGradGradGradGradGradGradGradGradGradGradGradGradGradGradGrad

                          Input orientation:                          
 ---------------------------------------------------------------------
 Center     Atomic      Atomic             Coordinates (Angstroms)
 Number     Number       Type             X           Y           Z
 ---------------------------------------------------------------------
      1         78           0       -0.319549    0.338346    0.000000
      2         35           0       -0.319549   -2.091654    0.000000
      3         35           0        2.110451    0.338346    0.000000
      4         35           0       -2.749549    0.338346    0.000000
      5          7           0       -0.319549    0.338346    1.990000
      6          7           0       -0.319549    0.338346   -1.990000
      7          8           0       -1.429985    0.979455    2.443333
      8          8           0        0.790886    0.979456    2.443333
      9          8           0       -1.429985    0.979455   -2.443333
     10          8           0        0.790886    0.979456   -2.443333
     11         35           0       -0.319549    2.768346    0.000000
 ---------------------------------------------------------------------
                    Distance matrix (angstroms):
                    1          2          3          4          5
     1  Pt   0.000000
     2  Br   2.430000   0.000000
     3  Br   2.430000   3.436539   0.000000
     4  Br   2.430000   3.436539   4.860000   0.000000
     5  N    1.990000   3.140860   3.140860   3.140860   0.000000
     6  N    1.990000   3.140860   3.140860   3.140860   3.980000
     7  O    2.759341   4.078561   4.349205   2.849938   1.360000
     8  O    2.759341   4.078561   2.849939   4.349205   1.360000
     9  O    2.759341   4.078561   4.349205   2.849938   4.615033
    10  O    2.759341   4.078561   2.849939   4.349205   4.615033
    11  Br   2.430000   4.860000   3.436539   3.436539   3.140860
                    6          7          8          9         10
     6  N    0.000000
     7  O    4.615033   0.000000
     8  O    4.615033   2.220871   0.000000
     9  O    1.360000   4.886666   5.367660   0.000000
    10  O    1.360000   5.367660   4.886666   2.220871   0.000000
    11  Br   3.140860   3.225379   3.225379   3.225379   3.225379
                   11
    11  Br   0.000000
 Stoichiometry    Br4N2O4Pt(2-)
 Framework group  CS[SG(Br4Pt),X(N2O4)]
 Deg. of freedom    16
 Full point group                 CS      NOp   2
 Largest Abelian subgroup         CS      NOp   2
 Largest concise Abelian subgroup CS      NOp   2
                         Standard orientation:                         
 ---------------------------------------------------------------------
 Center     Atomic      Atomic             Coordinates (Angstroms)
 Number     Number       Type             X           Y           Z
 ---------------------------------------------------------------------
      1         78           0       -0.077710    0.000000    0.000000
      2         35           0       -2.507710    0.000001    0.000000
      3         35           0       -0.077711   -2.430000    0.000000
      4         35           0       -0.077709    2.430000    0.000000
      5          7           0       -0.077710    0.000000    1.990000
      6          7           0       -0.077710    0.000000   -1.990000
      7          8           0        0.563400    1.110436    2.443333
      8          8           0        0.563400   -1.110436    2.443333
      9          8           0        0.563400    1.110436   -2.443333
     10          8           0        0.563400   -1.110436   -2.443333
     11         35           0        2.352290   -0.000001    0.000000
 ---------------------------------------------------------------------
 Rotational constants (GHZ):      0.3489288      0.3360772      0.2570051
 General basis read from cards:  (5D, 7F)
 ======================================================================================================
                                       Pseudopotential Parameters
 ======================================================================================================
  Center     Atomic      Valence      Angular      Power
  Number     Number     Electrons     Momentum     of R      Exponent        Coefficient   SO-Coeffient
 ======================================================================================================
    1         78           18
                                      G and up 
                                                     1      728.9394056       -0.16192680    0.00000000
                                                     2      320.6567800    -1320.28738520    0.00000000
                                                     2       52.8680174     -298.31781350    0.00000000
                                                     2       12.0280128      -87.58370650    0.00000000
                                                     2        3.5238913       -8.14932740    0.00000000
                                      S - G
                                                     0      409.4437358        2.73342180    0.00000000
                                                     1      274.5419231       59.70243290    0.00000000
                                                     2      127.5658570      891.45895500    0.00000000
                                                     2       32.9036631      368.44676560    0.00000000
                                                     2        5.0593880      238.02630900    0.00000000
                                                     2        4.1506556     -107.05564540    0.00000000
                                      P - G
                                                     0      466.1728892        1.88785680    0.00000000
                                                     1      120.7888259       76.01386290    0.00000000
                                                     2       36.4118791      343.55111160    0.00000000
                                                     2        5.6985408      119.49117860    0.00000000
                                      D - G
                                                     0      249.5650763        2.93436780    0.00000000
                                                     1      126.6678585       59.33065710    0.00000000
                                                     2       63.1430586      452.44451940    0.00000000
                                                     2       17.9059470      210.47694790    0.00000000
                                                     2        4.2239373       58.62541120    0.00000000
                                      F - G
                                                     0      121.8158799        3.95342530    0.00000000
                                                     1       60.8757030       53.85551820    0.00000000
                                                     2       31.4767147      247.43051330    0.00000000
                                                     2        9.8811751      127.81879760    0.00000000
                                                     2        2.7319874       15.37720460    0.00000000
    2         35
                                   No pseudopotential on this center.
    3         35
                                   No pseudopotential on this center.
    4         35
                                   No pseudopotential on this center.
    5          7
                                   No pseudopotential on this center.
    6          7
                                   No pseudopotential on this center.
    7          8
                                   No pseudopotential on this center.
    8          8
                                   No pseudopotential on this center.
    9          8
                                   No pseudopotential on this center.
   10          8
                                   No pseudopotential on this center.
   11         35
                                   No pseudopotential on this center.
 ======================================================================================================
 There are   162 symmetry adapted cartesian basis functions of A'  symmetry.
 There are    92 symmetry adapted cartesian basis functions of A"  symmetry.
 There are   145 symmetry adapted basis functions of A'  symmetry.
 There are    89 symmetry adapted basis functions of A"  symmetry.
   234 basis functions,   513 primitive gaussians,   254 cartesian basis functions
   103 alpha electrons      103 beta electrons
       nuclear repulsion energy      2927.4129534718 Hartrees.
 NAtoms=   11 NActive=   11 NUniq=    8 SFac= 1.89D+00 NAtFMM=   60 NAOKFM=F Big=F
 Integral buffers will be    131072 words long.
 Raffenetti 2 integral format.
 Two-electron integral symmetry is turned on.
 ------------------------------------------------------------------------------
 Polarizable Continuum Model (PCM)
 =================================
 Model                : PCM (using non-symmetric T matrix).
 Atomic radii         : UFF (Universal Force Field).
 Polarization charges : Total charges.
 Charge compensation  : None.
 Solution method      : On-the-fly selection.
 Cavity type          : Scaled VdW (van der Waals Surface) (Alpha=1.100).
 Cavity algorithm     : GePol (No added spheres)
                        Default sphere list used, NSphG=   11.
                        Lebedev-Laikov grids with approx.  5.0 points / Ang**2.
                        Smoothing algorithm: Karplus/York (Gamma=1.0000).
                        Polarization charges: spherical gaussians, with
                                              point-specific exponents (IZeta= 3).
                        Self-potential: point-specific (ISelfS= 7).
                        Self-field    : sphere-specific E.n sum rule (ISelfD= 2).
 1st derivatives      : Analytical E(r).r(x)/FMM algorithm (CHGder, D1EAlg=3).
                        Cavity 1st derivative terms included.
 Solvent              : Water, Eps=  78.355300 Eps(inf)=   1.777849
 ------------------------------------------------------------------------------
 Spheres list:
 ISph  on   Nord     Re0    Alpha      Xe            Ye            Ze
    1  Pt      1    1.3770  1.100     -0.077710      0.000000      0.000000
    2  Br      2    2.0945  1.100     -2.507710      0.000001      0.000000
    3  Br      3    2.0945  1.100     -0.077711     -2.430000      0.000000
    4  Br      4    2.0945  1.100     -0.077709      2.430000      0.000000
    5   N      5    1.8300  1.100     -0.077710      0.000000      1.990000
    6   N      6    1.8300  1.100     -0.077710      0.000000     -1.990000
    7   O      7    1.7500  1.100      0.563400      1.110436      2.443333
    8   O      8    1.7500  1.100      0.563400     -1.110436      2.443333
    9   O      9    1.7500  1.100      0.563400      1.110436     -2.443333
   10   O     10    1.7500  1.100      0.563400     -1.110436     -2.443333
   11  Br     11    2.0945  1.100      2.352290     -0.000001      0.000000
 ------------------------------------------------------------------------------
 One-electron integrals computed using PRISM.
   2 Symmetry operations used in ECPInt.
 ECPInt:  NShTT=    4278 NPrTT=   21985 LenC2=    3886 LenP2D=   13512.
 LDataN:  DoStor=T MaxTD1= 6 Len=  172
 NBasis=   234 RedAO= T EigKep=  3.50D-03  NBF=   145    89
 NBsUse=   234 1.00D-06 EigRej= -1.00D+00 NBFU=   145    89
 Defaulting to unpruned grid for atomic number  78.
 ExpMin= 2.90D-02 ExpMax= 1.13D+05 ExpMxC= 1.70D+04 IAcc=3 IRadAn=         5 AccDes= 0.00D+00
 Harris functional with IExCor=  402 and IRadAn=       5 diagonalized for initial guess.
 HarFok:  IExCor=  402 AccDes= 0.00D+00 IRadAn=         5 IDoV= 1 UseB2=F ITyADJ=14
 ICtDFT=  3500011 ScaDFX=  1.000000  1.000000  1.000000  1.000000
 Defaulting to unpruned grid for atomic number  78.
 Defaulting to unpruned grid for atomic number  78.
 Defaulting to unpruned grid for atomic number  78.
 Defaulting to unpruned grid for atomic number  78.
 Defaulting to unpruned grid for atomic number  78.
 Defaulting to unpruned grid for atomic number  78.
 Defaulting to unpruned grid for atomic number  78.
 Defaulting to unpruned grid for atomic number  78.
 FoFCou: FMM=F IPFlag=           0 FMFlag=      100000 FMFlg1=           0
         NFxFlg=           0 DoJE=T BraDBF=F KetDBF=T FulRan=T
         wScrn=  0.000000 ICntrl=     500 IOpCl=  0 I1Cent=   200000004 NGrid=           0
         NMat0=    1 NMatS0=      1 NMatT0=    0 NMatD0=    1 NMtDS0=    0 NMtDT0=    0
 Petite list used in FoFCou.
 Initial guess orbital symmetries:
       Occupied  (A') (A') (A') (A') (A') (A') (A') (A') (A') (A')
                 (A') (A") (A') (A") (A') (A') (A") (A') (A") (A')
                 (A') (A") (A') (A") (A") (A') (A') (A') (A') (A')
                 (A') (A') (A') (A') (A") (A") (A') (A') (A') (A")
                 (A') (A") (A') (A') (A') (A') (A') (A') (A') (A")
                 (A") (A') (A') (A") (A") (A') (A') (A") (A") (A')
                 (A") (A') (A") (A') (A') (A") (A') (A") (A') (A")
                 (A') (A') (A') (A') (A') (A") (A') (A") (A') (A")
                 (A") (A') (A') (A') (A') (A") (A') (A') (A") (A")
                 (A') (A") (A') (A") (A') (A') (A') (A') (A") (A")
                 (A') (A") (A')
       Virtual   (A") (A") (A') (A') (A') (A') (A") (A') (A') (A")
                 (A') (A") (A') (A") (A') (A') (A') (A') (A") (A")
                 (A') (A') (A') (A') (A") (A') (A") (A') (A") (A")
                 (A") (A') (A') (A') (A') (A') (A') (A") (A') (A')
                 (A") (A") (A") (A') (A') (A") (A') (A') (A") (A')
                 (A") (A") (A") (A') (A') (A') (A") (A') (A") (A')
                 (A") (A') (A') (A") (A') (A') (A') (A') (A') (A")
                 (A') (A") (A") (A') (A") (A') (A") (A") (A') (A')
                 (A') (A") (A') (A") (A") (A') (A") (A') (A") (A')
                 (A') (A") (A") (A") (A') (A') (A') (A") (A") (A')
                 (A") (A') (A") (A') (A') (A") (A') (A") (A") (A")
                 (A") (A') (A") (A') (A') (A') (A') (A') (A") (A')
                 (A") (A") (A') (A") (A') (A') (A") (A') (A') (A')
                 (A')
 The electronic state of the initial guess is 1-A'.
 Keep R1 ints in memory in symmetry-blocked form, NReq=567992664.
 Requested convergence on RMS density matrix=1.00D-08 within 128 cycles.
 Requested convergence on MAX density matrix=1.00D-06.
 Requested convergence on             energy=1.00D-06.
 No special actions if energy rises.
 Defaulting to unpruned grid for atomic number  78.
 Defaulting to unpruned grid for atomic number  78.
 Defaulting to unpruned grid for atomic number  78.
 Defaulting to unpruned grid for atomic number  78.
 Defaulting to unpruned grid for atomic number  78.
 Defaulting to unpruned grid for atomic number  78.
 Defaulting to unpruned grid for atomic number  78.
 Defaulting to unpruned grid for atomic number  78.
 Inv3:  Mode=1 IEnd=     8690412.
 Iteration    1 A*A^-1 deviation from unit magnitude is 7.33D-15 for   1230.
 Iteration    1 A*A^-1 deviation from orthogonality  is 4.07D-15 for   1481   1230.
 Iteration    1 A^-1*A deviation from unit magnitude is 6.66D-15 for    950.
 Iteration    1 A^-1*A deviation from orthogonality  is 2.07D-14 for    816    668.
 EnCoef did   100 forward-backward iterations
 EnCoef did   100 forward-backward iterations
 EnCoef did   100 forward-backward iterations
 EnCoef did     2 forward-backward iterations
 Error on total polarization charges =  0.01552
 SCF Done:  E(RB3LYP) =  -10824.8154210     A.U. after   18 cycles
            NFock= 18  Conv=0.82D-08     -V/T= 2.0090

 **********************************************************************

            Population analysis using the SCF density.

 **********************************************************************

 Orbital symmetries:
       Occupied  (A') (A') (A') (A') (A') (A') (A') (A') (A') (A")
                 (A') (A') (A") (A') (A') (A') (A') (A') (A") (A")
                 (A') (A") (A') (A") (A") (A') (A') (A') (A') (A')
                 (A') (A') (A") (A') (A') (A') (A") (A') (A') (A')
                 (A") (A") (A') (A') (A") (A') (A') (A") (A") (A')
                 (A') (A') (A') (A') (A') (A') (A") (A") (A") (A")
                 (A") (A') (A') (A") (A') (A') (A') (A") (A") (A')
                 (A') (A') (A') (A') (A') (A") (A') (A") (A") (A")
                 (A') (A') (A') (A') (A') (A") (A") (A') (A') (A')
                 (A") (A") (A") (A') (A") (A') (A') (A') (A") (A')
                 (A") (A') (A")
       Virtual   (A') (A') (A") (A') (A') (A') (A") (A') (A') (A')
                 (A") (A") (A") (A') (A') (A') (A') (A") (A") (A')
                 (A') (A') (A') (A') (A') (A') (A") (A") (A') (A')
                 (A") (A") (A') (A') (A") (A') (A') (A') (A") (A')
                 (A") (A") (A') (A") (A") (A') (A') (A") (A') (A")
                 (A') (A") (A") (A') (A') (A") (A') (A') (A") (A')
                 (A") (A') (A') (A") (A') (A') (A') (A') (A') (A')
                 (A") (A") (A") (A') (A') (A") (A") (A") (A') (A')
                 (A') (A") (A') (A") (A") (A') (A") (A') (A') (A")
                 (A') (A") (A") (A") (A') (A') (A') (A") (A") (A')
                 (A') (A") (A") (A') (A') (A") (A") (A') (A") (A")
                 (A') (A") (A") (A') (A') (A') (A') (A') (A") (A')
                 (A") (A") (A') (A") (A') (A') (A") (A') (A') (A')
                 (A')
 The electronic state is 1-A'.
 Alpha  occ. eigenvalues -- -482.75467-482.74598-482.73672-482.73671 -62.43625
 Alpha  occ. eigenvalues --  -62.42757 -62.41843 -62.41842 -56.26822 -56.26521
 Alpha  occ. eigenvalues --  -56.26516 -56.25946 -56.25661 -56.25647 -56.25048
 Alpha  occ. eigenvalues --  -56.25047 -56.24747 -56.24747 -56.24714 -56.24713
 Alpha  occ. eigenvalues --  -19.14332 -19.14330 -19.14327 -19.14326 -14.49520
 Alpha  occ. eigenvalues --  -14.49516  -8.65393  -8.64528  -8.63628  -8.63627
 Alpha  occ. eigenvalues --   -6.48612  -6.47724  -6.47519  -6.47498  -6.46878
 Alpha  occ. eigenvalues --   -6.46878  -6.46680  -6.46633  -6.45782  -6.45782
 Alpha  occ. eigenvalues --   -6.45675  -6.45674  -4.02627  -2.60059  -2.59755
 Alpha  occ. eigenvalues --   -2.59738  -2.59178  -2.58894  -2.58880  -2.58880
 Alpha  occ. eigenvalues --   -2.58856  -2.58324  -2.58321  -2.58040  -2.58039
 Alpha  occ. eigenvalues --   -2.58035  -2.58035  -2.57957  -2.57957  -2.57094
 Alpha  occ. eigenvalues --   -2.57094  -2.57090  -2.57090  -2.24689  -2.23545
 Alpha  occ. eigenvalues --   -2.23532  -1.09309  -1.08878  -0.93085  -0.93055
 Alpha  occ. eigenvalues --   -0.74523  -0.72413  -0.71871  -0.71144  -0.67129
 Alpha  occ. eigenvalues --   -0.63364  -0.50900  -0.47379  -0.46970  -0.46549
 Alpha  occ. eigenvalues --   -0.45880  -0.44444  -0.41328  -0.40697  -0.39945
 Alpha  occ. eigenvalues --   -0.38008  -0.35295  -0.31368  -0.30922  -0.28394
 Alpha  occ. eigenvalues --   -0.27822  -0.27189  -0.26952  -0.26846  -0.26421
 Alpha  occ. eigenvalues --   -0.25955  -0.24730  -0.24631  -0.24604  -0.24500
 Alpha  occ. eigenvalues --   -0.22318  -0.22307  -0.20411
 Alpha virt. eigenvalues --   -0.14726  -0.09717  -0.09524  -0.03811   0.05223
 Alpha virt. eigenvalues --    0.05675   0.06766   0.15009   0.18034   0.18877
 Alpha virt. eigenvalues --    0.19480   0.20577   0.25257   0.25993   0.27166
 Alpha virt. eigenvalues --    0.31850   0.34707   0.37677   0.38917   0.42167
 Alpha virt. eigenvalues --    0.44354   0.48055   0.49615   0.50128   0.52762
 Alpha virt. eigenvalues --    0.53465   0.53976   0.54322   0.55709   0.55983
 Alpha virt. eigenvalues --    0.56054   0.56075   0.56453   0.56725   0.58110
 Alpha virt. eigenvalues --    0.58210   0.58355   0.62362   0.62667   0.62746
 Alpha virt. eigenvalues --    0.65046   0.65573   0.65888   0.69070   0.72852
 Alpha virt. eigenvalues --    0.77650   0.78633   0.84975   0.86609   0.88684
 Alpha virt. eigenvalues --    0.89081   0.89323   0.90542   0.92086   0.93407
 Alpha virt. eigenvalues --    0.94210   0.95546   0.96305   0.97989   0.99665
 Alpha virt. eigenvalues --    1.01682   1.02487   1.03028   1.05938   1.06742
 Alpha virt. eigenvalues --    1.08013   1.12045   1.15569   1.16699   1.16951
 Alpha virt. eigenvalues --    1.17683   1.22309   1.24528   1.27608   1.30470
 Alpha virt. eigenvalues --    1.31059   1.38450   1.40832   1.44376   1.46483
 Alpha virt. eigenvalues --    1.92186   1.94977   1.96431   1.96475   1.99853
 Alpha virt. eigenvalues --    2.10368   2.29925   2.31910   2.33404   2.33593
 Alpha virt. eigenvalues --    2.64928   2.65765   2.65897   2.66650   2.67236
 Alpha virt. eigenvalues --    2.67692   2.68091   2.69210   2.75641   2.76049
 Alpha virt. eigenvalues --    2.98030   2.98067   3.01150   3.01268   3.20985
 Alpha virt. eigenvalues --    3.23311   3.42478   3.42669   3.44259   3.45260
 Alpha virt. eigenvalues --    3.45338   3.46404   3.47207   3.48197   3.49156
 Alpha virt. eigenvalues --    3.50106   3.50748   3.51459   3.54346   3.54949
 Alpha virt. eigenvalues --    3.64435   3.65765   3.66059   3.69384   3.74623
 Alpha virt. eigenvalues --    3.74687   3.75563   3.77685   3.79351   3.90947
 Alpha virt. eigenvalues --   10.68000
          Condensed to atoms (all electrons):
               1          2          3          4          5          6
     1  Pt  17.532643   0.226055   0.223456   0.223456   0.055434   0.055434
     2  Br   0.226055  35.013866  -0.037236  -0.037236  -0.016001  -0.016001
     3  Br   0.223456  -0.037236  35.045647  -0.004367  -0.014372  -0.014372
     4  Br   0.223456  -0.037236  -0.004367  35.045647  -0.014372  -0.014372
     5  N    0.055434  -0.016001  -0.014372  -0.014372   6.634332  -0.004856
     6  N    0.055434  -0.016001  -0.014372  -0.014372  -0.004856   6.634332
     7  O   -0.016461   0.000209   0.000381  -0.023137   0.183562   0.000104
     8  O   -0.016461   0.000209  -0.023137   0.000381   0.183562   0.000104
     9  O   -0.016461   0.000209   0.000381  -0.023137   0.000104   0.183562
    10  O   -0.016461   0.000209  -0.023137   0.000381   0.000104   0.183562
    11  Br   0.231558  -0.004269  -0.032668  -0.032668  -0.022710  -0.022710
               7          8          9         10         11
     1  Pt  -0.016461  -0.016461  -0.016461  -0.016461   0.231558
     2  Br   0.000209   0.000209   0.000209   0.000209  -0.004269
     3  Br   0.000381  -0.023137   0.000381  -0.023137  -0.032668
     4  Br  -0.023137   0.000381  -0.023137   0.000381  -0.032668
     5  N    0.183562   0.183562   0.000104   0.000104  -0.022710
     6  N    0.000104   0.000104   0.183562   0.183562  -0.022710
     7  O    8.216354  -0.096523  -0.000003   0.000000  -0.001835
     8  O   -0.096523   8.216354   0.000000  -0.000003  -0.001835
     9  O   -0.000003   0.000000   8.216354  -0.096523  -0.001835
    10  O    0.000000  -0.000003  -0.096523   8.216354  -0.001835
    11  Br  -0.001835  -0.001835  -0.001835  -0.001835  35.017290
 Mulliken charges:
               1
     1  Pt  -0.482192
     2  Br  -0.130013
     3  Br  -0.120572
     4  Br  -0.120572
     5  N    0.015214
     6  N    0.015214
     7  O   -0.262649
     8  O   -0.262649
     9  O   -0.262649
    10  O   -0.262649
    11  Br  -0.126482
 Sum of Mulliken charges =  -2.00000
 Mulliken charges with hydrogens summed into heavy atoms:
               1
     1  Pt  -0.482192
     2  Br  -0.130013
     3  Br  -0.120572
     4  Br  -0.120572
     5  N    0.015214
     6  N    0.015214
     7  O   -0.262649
     8  O   -0.262649
     9  O   -0.262649
    10  O   -0.262649
    11  Br  -0.126482
 Electronic spatial extent (au):  <R**2>=           4372.3294
 Charge=             -2.0000 electrons
 Dipole moment (field-independent basis, Debye):
    X=             -2.6665    Y=              0.0000    Z=              0.0000  Tot=              2.6665
 Quadrupole moment (field-independent basis, Debye-Ang):
   XX=           -154.3271   YY=           -162.9757   ZZ=           -165.7038
   XY=              0.0000   XZ=              0.0000   YZ=              0.0000
 Traceless Quadrupole moment (field-independent basis, Debye-Ang):
   XX=              6.6751   YY=             -1.9735   ZZ=             -4.7016
   XY=              0.0000   XZ=              0.0000   YZ=              0.0000
 Octapole moment (field-independent basis, Debye-Ang**2):
  XXX=             -8.0240  YYY=              0.0000  ZZZ=              0.0000  XYY=             -4.5247
  XXY=              0.0000  XXZ=              0.0000  XZZ=            -29.1727  YZZ=              0.0000
  YYZ=              0.0000  XYZ=              0.0000
 Hexadecapole moment (field-independent basis, Debye-Ang**3):
 XXXX=          -1597.9775 YYYY=          -1744.8955 ZZZZ=          -1420.1466 XXXY=              0.0000
 XXXZ=              0.0000 YYYX=              0.0000 YYYZ=              0.0000 ZZZX=              0.0000
 ZZZY=              0.0000 XXYY=           -554.6875 XXZZ=           -481.5180 YYZZ=           -540.8340
 XXYZ=              0.0000 YYXZ=              0.0000 ZZXY=              0.0000
 N-N= 2.927412953472D+03 E-N=-3.174009658875D+04  KE= 1.072844419245D+04
 Symmetry A'   KE= 9.007304201679D+03
 Symmetry A"   KE= 1.721139990774D+03
   2 Symmetry operations used in ECPInt.
 ECPInt:  NShTT=    4278 NPrTT=   21985 LenC2=    3886 LenP2D=   13512.
 LDataN:  DoStor=T MaxTD1= 7 Len=  274
 D1PCM: PCM CHGder 1st derivatives, ID1Alg=3 FixD1E=F DoIter=F DoCFld=F I1PDM=0.
 Calling FoFJK, ICntrl=      2127 FMM=F ISym2X=1 I1Cent= 0 IOpClX= 0 NMat=1 NMatS=1 NMatT=0.
 Defaulting to unpruned grid for atomic number  78.
 Defaulting to unpruned grid for atomic number  78.
 Defaulting to unpruned grid for atomic number  78.
 Defaulting to unpruned grid for atomic number  78.
 Defaulting to unpruned grid for atomic number  78.
 Defaulting to unpruned grid for atomic number  78.
 Defaulting to unpruned grid for atomic number  78.
 Defaulting to unpruned grid for atomic number  78.
 ***** Axes restored to original set *****
 -------------------------------------------------------------------
 Center     Atomic                   Forces (Hartrees/Bohr)
 Number     Number              X              Y              Z
 -------------------------------------------------------------------
      1       78           0.000000027   -0.052657746    0.000000000
      2       35          -0.000000009   -0.035749499    0.000000000
      3       35           0.044551353   -0.006458698    0.000000000
      4       35          -0.044551368   -0.006458672    0.000000000
      5        7          -0.000000075    0.183151189    0.099147102
      6        7          -0.000000075    0.183151189   -0.099147102
      7        8           0.068695550   -0.075465108   -0.013731233
      8        8          -0.068695477   -0.075465158   -0.013731250
      9        8           0.068695550   -0.075465108    0.013731233
     10        8          -0.068695477   -0.075465158    0.013731250
     11       35           0.000000002    0.036882768    0.000000000
 -------------------------------------------------------------------
 Cartesian Forces:  Max     0.183151189 RMS     0.064812952

 GradGradGradGradGradGradGradGradGradGradGradGradGradGradGradGradGradGrad
 Berny optimization.
 FormGI is forming the generalized inverse of G from B-inverse, IUseBI=4.
 Internal  Forces:  Max     0.096241342 RMS     0.035431349
 Search for a local minimum.
 Step number   1 out of a maximum of   64
 All quantities printed in internal units (Hartrees-Bohrs-Radians)
 Mixed Optimization -- RFO/linear search
 Second derivative matrix not updated -- first step.
 ITU=  0
     Eigenvalues ---    0.00230   0.00230   0.03396   0.03426   0.06422
     Eigenvalues ---    0.06423   0.11955   0.12615   0.12615   0.12615
     Eigenvalues ---    0.12615   0.19509   0.19509   0.19509   0.19509
     Eigenvalues ---    0.20378   0.20378   0.25000   0.25000   0.25000
     Eigenvalues ---    0.25000   0.25000   0.25000   0.52948   0.52948
     Eigenvalues ---    0.52948   0.52948
 RFO step:  Lambda=-1.54332919D-01 EMin= 2.30000000D-03
 Linear search not attempted -- first point.
 Maximum step size (   0.300) exceeded in Quadratic search.
    -- Step size scaled by   0.556
 Iteration  1 RMS(Cart)=  0.07410315 RMS(Int)=  0.00299607
 Iteration  2 RMS(Cart)=  0.00333272 RMS(Int)=  0.00160599
 Iteration  3 RMS(Cart)=  0.00001300 RMS(Int)=  0.00160595
 Iteration  4 RMS(Cart)=  0.00000008 RMS(Int)=  0.00160595
 ClnCor:  largest displacement from symmetrization is 8.83D-09 for atom     9.
 Variable       Old X    -DE/DX   Delta X   Delta X   Delta X     New X
                                 (Linear)    (Quad)   (Total)
    R1        4.59203   0.03575   0.00000   0.05688   0.05688   4.64892
    R2        4.59203   0.04455   0.00000   0.07089   0.07089   4.66292
    R3        4.59203   0.04455   0.00000   0.07089   0.07089   4.66292
    R4        3.76056   0.07168   0.00000   0.11130   0.11130   3.87185
    R5        3.76056   0.07168   0.00000   0.11130   0.11130   3.87185
    R6        4.59203   0.03688   0.00000   0.05869   0.05869   4.65072
    R7        2.57003  -0.09624   0.00000  -0.07825  -0.07825   2.49177
    R8        2.57003  -0.09624   0.00000  -0.07825  -0.07825   2.49177
    R9        2.57003  -0.09624   0.00000  -0.07825  -0.07825   2.49177
   R10        2.57003  -0.09624   0.00000  -0.07825  -0.07825   2.49177
    A1        1.57080  -0.00371   0.00000  -0.00943  -0.00943   1.56137
    A2        1.57080  -0.00371   0.00000  -0.00943  -0.00943   1.56137
    A3        1.57080   0.01016   0.00000   0.01919   0.01912   1.58991
    A4        1.57080   0.01016   0.00000   0.01919   0.01912   1.58991
    A5        1.57080   0.00000   0.00000   0.00000   0.00018   1.57098
    A6        1.57080   0.00000   0.00000   0.00000   0.00018   1.57098
    A7        1.57080   0.00371   0.00000   0.00943   0.00943   1.58023
    A8        1.57080   0.00000   0.00000   0.00000   0.00018   1.57098
    A9        1.57080   0.00000   0.00000   0.00000   0.00018   1.57098
   A10        1.57080   0.00371   0.00000   0.00943   0.00943   1.58023
   A11        1.57080  -0.01016   0.00000  -0.01919  -0.01912   1.55168
   A12        1.57080  -0.01016   0.00000  -0.01919  -0.01912   1.55168
   A13        1.91063   0.04193   0.00000   0.07047   0.06693   1.97756
   A14        1.91063   0.04193   0.00000   0.07047   0.06693   1.97756
   A15        1.91063  -0.01619   0.00000   0.00338  -0.00243   1.90820
   A16        1.91063   0.04193   0.00000   0.07047   0.06693   1.97756
   A17        1.91063   0.04193   0.00000   0.07047   0.06693   1.97756
   A18        1.91063  -0.01619   0.00000   0.00338  -0.00243   1.90820
   A19        3.14159   0.00000   0.00000   0.00000   0.00000   3.14159
   A20        3.14159  -0.00741   0.00000  -0.01886  -0.01886   3.12273
   A21        3.14159   0.02032   0.00000   0.03837   0.03823   3.17983
   A22        3.14159   0.00000   0.00000   0.00000   0.00000   3.14159
   A23        3.14159   0.00000   0.00000   0.00000   0.00000   3.14159
   A24        3.14159   0.00000   0.00000   0.00000   0.00000   3.14159
    D1       -2.09439   0.01576   0.00000   0.04522   0.04637  -2.04802
    D2        2.09440  -0.01576   0.00000  -0.04522  -0.04637   2.04802
    D3        2.61799   0.01947   0.00000   0.05465   0.05580   2.67380
    D4        0.52360  -0.01205   0.00000  -0.03579  -0.03694   0.48666
    D5       -0.52360   0.01205   0.00000   0.03579   0.03694  -0.48665
    D6       -2.61799  -0.01947   0.00000  -0.05465  -0.05580  -2.67380
    D7        1.04720   0.01576   0.00000   0.04522   0.04637   1.09357
    D8       -1.04720  -0.01576   0.00000  -0.04522  -0.04637  -1.09357
    D9        0.00000   0.00000   0.00000   0.00000   0.00000   0.00000
   D10        2.09440   0.02530   0.00000   0.07869   0.07832   2.17272
   D11       -2.09440  -0.02530   0.00000  -0.07869  -0.07832  -2.17272
   D12        0.00000   0.00000   0.00000   0.00000   0.00000   0.00000
   D13        2.09439  -0.01576   0.00000  -0.04522  -0.04637   2.04802
   D14       -2.09440   0.01576   0.00000   0.04522   0.04637  -2.04802
   D15       -2.61799  -0.01947   0.00000  -0.05465  -0.05580  -2.67380
   D16       -0.52360   0.01205   0.00000   0.03579   0.03694  -0.48666
   D17        0.52360  -0.01205   0.00000  -0.03579  -0.03694   0.48665
   D18        2.61799   0.01947   0.00000   0.05465   0.05580   2.67380
   D19       -1.04720  -0.01576   0.00000  -0.04522  -0.04637  -1.09357
   D20        1.04720   0.01576   0.00000   0.04522   0.04637   1.09357
         Item               Value     Threshold  Converged?
 Maximum Force            0.096241     0.000450     NO 
 RMS     Force            0.035431     0.000300     NO 
 Maximum Displacement     0.219492     0.001800     NO 
 RMS     Displacement     0.072044     0.001200     NO 
 Predicted change in Energy=-7.250398D-02
 GradGradGradGradGradGradGradGradGradGradGradGradGradGradGradGradGradGrad

                          Input orientation:                          
 ---------------------------------------------------------------------
 Center     Atomic      Atomic             Coordinates (Angstroms)
 Number     Number       Type             X           Y           Z
 ---------------------------------------------------------------------
      1         78           0       -0.319549    0.348402    0.000000
      2         35           0       -0.319549   -2.111700    0.000000
      3         35           0        2.147855    0.325131    0.000000
      4         35           0       -2.786953    0.325131    0.000000
      5          7           0       -0.319549    0.387569    2.048521
      6          7           0       -0.319549    0.387569   -2.048521
      7          8           0       -1.395247    0.953671    2.559483
      8          8           0        0.756148    0.953672    2.559483
      9          8           0       -1.395247    0.953671   -2.559483
     10          8           0        0.756148    0.953672   -2.559483
     11         35           0       -0.319549    2.809458    0.000000
 ---------------------------------------------------------------------
                    Distance matrix (angstroms):
                    1          2          3          4          5
     1  Pt   0.000000
     2  Br   2.460102   0.000000
     3  Br   2.467513   3.467885   0.000000
     4  Br   2.467513   3.467885   4.934807   0.000000
     5  N    2.048895   3.231529   3.207556   3.207556   0.000000
     6  N    2.048895   3.231529   3.207556   3.207556   4.097042
     7  O    2.841554   4.135768   4.415833   2.980413   1.318590
     8  O    2.841554   4.135769   2.980413   4.415833   1.318590
     9  O    2.841554   4.135768   4.415833   2.980413   4.765637
    10  O    2.841554   4.135769   2.980413   4.415833   4.765637
    11  Br   2.461056   4.921158   3.501423   3.501423   3.172063
                    6          7          8          9         10
     6  N    0.000000
     7  O    4.765637   0.000000
     8  O    4.765637   2.151395   0.000000
     9  O    1.318590   5.118967   5.552686   0.000000
    10  O    1.318590   5.552686   5.118966   2.151395   0.000000
    11  Br   3.172063   3.339465   3.339464   3.339465   3.339464
                   11
    11  Br   0.000000
 Stoichiometry    Br4N2O4Pt(2-)
 Framework group  CS[SG(Br4Pt),X(N2O4)]
 Deg. of freedom    16
 Full point group                 CS      NOp   2
 Largest Abelian subgroup         CS      NOp   2
 Largest concise Abelian subgroup CS      NOp   2
                         Standard orientation:                         
 ---------------------------------------------------------------------
 Center     Atomic      Atomic             Coordinates (Angstroms)
 Number     Number       Type             X           Y           Z
 ---------------------------------------------------------------------
      1         78           0        0.000000   -0.069399    0.000000
      2         35           0        0.000000   -2.529501    0.000000
      3         35           0        2.467404   -0.092670    0.000000
      4         35           0       -2.467404   -0.092670    0.000000
      5          7           0        0.000000   -0.030232    2.048521
      6          7           0        0.000000   -0.030232   -2.048521
      7          8           0       -1.075698    0.535870    2.559483
      8          8           0        1.075697    0.535871    2.559483
      9          8           0       -1.075698    0.535870   -2.559483
     10          8           0        1.075697    0.535871   -2.559483
     11         35           0        0.000000    2.391657    0.000000
 ---------------------------------------------------------------------
 Rotational constants (GHZ):      0.3338792      0.3215680      0.2511875
 Basis read from rwf:  (5D, 7F)
 Pseudo-potential data read from rwf file.
 There are   162 symmetry adapted cartesian basis functions of A'  symmetry.
 There are    92 symmetry adapted cartesian basis functions of A"  symmetry.
 There are   145 symmetry adapted basis functions of A'  symmetry.
 There are    89 symmetry adapted basis functions of A"  symmetry.
   234 basis functions,   513 primitive gaussians,   254 cartesian basis functions
   103 alpha electrons      103 beta electrons
       nuclear repulsion energy      2876.2938747729 Hartrees.
 NAtoms=   11 NActive=   11 NUniq=    8 SFac= 1.89D+00 NAtFMM=   60 NAOKFM=F Big=F
 Integral buffers will be    131072 words long.
 Raffenetti 2 integral format.
 Two-electron integral symmetry is turned on.
 ------------------------------------------------------------------------------
 Polarizable Continuum Model (PCM)
 =================================
 Model                : PCM (using non-symmetric T matrix).
 Atomic radii         : UFF (Universal Force Field).
 Polarization charges : Total charges.
 Charge compensation  : None.
 Solution method      : On-the-fly selection.
 Cavity type          : Scaled VdW (van der Waals Surface) (Alpha=1.100).
 Cavity algorithm     : GePol (No added spheres)
                        Default sphere list used, NSphG=   11.
                        Lebedev-Laikov grids with approx.  5.0 points / Ang**2.
                        Smoothing algorithm: Karplus/York (Gamma=1.0000).
                        Polarization charges: spherical gaussians, with
                                              point-specific exponents (IZeta= 3).
                        Self-potential: point-specific (ISelfS= 7).
                        Self-field    : sphere-specific E.n sum rule (ISelfD= 2).
 1st derivatives      : Analytical E(r).r(x)/FMM algorithm (CHGder, D1EAlg=3).
                        Cavity 1st derivative terms included.
 Solvent              : Water, Eps=  78.355300 Eps(inf)=   1.777849
 ------------------------------------------------------------------------------
 Spheres list:
 ISph  on   Nord     Re0    Alpha      Xe            Ye            Ze
    1  Pt      1    1.3770  1.100      0.000000     -0.069399      0.000000
    2  Br      2    2.0945  1.100      0.000000     -2.529501      0.000000
    3  Br      3    2.0945  1.100      2.467404     -0.092670      0.000000
    4  Br      4    2.0945  1.100     -2.467404     -0.092670      0.000000
    5   N      5    1.8300  1.100      0.000000     -0.030232      2.048521
    6   N      6    1.8300  1.100      0.000000     -0.030232     -2.048521
    7   O      7    1.7500  1.100     -1.075698      0.535870      2.559483
    8   O      8    1.7500  1.100      1.075697      0.535871      2.559483
    9   O      9    1.7500  1.100     -1.075698      0.535870     -2.559483
   10   O     10    1.7500  1.100      1.075697      0.535871     -2.559483
   11  Br     11    2.0945  1.100      0.000000      2.391657      0.000000
 ------------------------------------------------------------------------------
 One-electron integrals computed using PRISM.
   2 Symmetry operations used in ECPInt.
 ECPInt:  NShTT=    4278 NPrTT=   21985 LenC2=    3884 LenP2D=   13378.
 LDataN:  DoStor=T MaxTD1= 6 Len=  172
 NBasis=   234 RedAO= T EigKep=  3.79D-03  NBF=   145    89
 NBsUse=   234 1.00D-06 EigRej= -1.00D+00 NBFU=   145    89
 Defaulting to unpruned grid for atomic number  78.
 Initial guess from the checkpoint file:  "/home/scr/diego/Gau-29671.chk"
 B after Tr=     0.000000    0.000000    0.000000
         Rot=    0.707107    0.000000    0.000000   -0.707107 Ang= -90.00 deg.
 Initial guess orbital symmetries:
       Occupied  (A') (A') (A') (A') (A') (A') (A') (A') (A') (A")
                 (A') (A') (A") (A') (A') (A') (A') (A') (A") (A")
                 (A') (A") (A') (A") (A") (A') (A') (A') (A') (A')
                 (A') (A') (A") (A') (A') (A') (A") (A') (A') (A')
                 (A") (A") (A') (A') (A") (A') (A') (A") (A") (A')
                 (A') (A') (A') (A') (A') (A') (A") (A") (A") (A")
                 (A") (A') (A') (A") (A') (A') (A') (A") (A") (A')
                 (A') (A') (A') (A') (A') (A") (A') (A") (A") (A")
                 (A') (A') (A') (A') (A') (A") (A") (A') (A') (A')
                 (A") (A") (A") (A') (A") (A') (A') (A') (A") (A')
                 (A") (A') (A")
       Virtual   (A') (A') (A') (A') (A') (A') (A') (A') (A') (A')
                 (A') (A') (A') (A') (A') (A') (A') (A') (A') (A')
                 (A') (A') (A') (A') (A') (A') (A') (A') (A') (A')
                 (A') (A') (A') (A') (A') (A') (A') (A') (A') (A')
                 (A') (A') (A') (A') (A') (A') (A') (A') (A') (A')
                 (A') (A') (A') (A') (A') (A') (A') (A') (A') (A')
                 (A') (A') (A') (A') (A') (A') (A') (A') (A') (A')
                 (A') (A') (A') (A') (A') (A') (A') (A") (A") (A")
                 (A") (A") (A") (A") (A") (A") (A") (A") (A") (A")
                 (A") (A") (A") (A") (A") (A") (A") (A") (A") (A")
                 (A") (A") (A") (A") (A") (A") (A") (A") (A") (A")
                 (A") (A") (A") (A") (A") (A") (A") (A") (A") (A")
                 (A") (A") (A") (A") (A") (A") (A") (A") (A") (A")
                 (A")
 ExpMin= 2.90D-02 ExpMax= 1.13D+05 ExpMxC= 1.70D+04 IAcc=3 IRadAn=         5 AccDes= 0.00D+00
 Harris functional with IExCor=  402 and IRadAn=       5 diagonalized for initial guess.
 HarFok:  IExCor=  402 AccDes= 0.00D+00 IRadAn=         5 IDoV= 1 UseB2=F ITyADJ=14
 ICtDFT=  3500011 ScaDFX=  1.000000  1.000000  1.000000  1.000000
 Defaulting to unpruned grid for atomic number  78.
 Defaulting to unpruned grid for atomic number  78.
 Defaulting to unpruned grid for atomic number  78.
 Defaulting to unpruned grid for atomic number  78.
 Defaulting to unpruned grid for atomic number  78.
 Defaulting to unpruned grid for atomic number  78.
 Defaulting to unpruned grid for atomic number  78.
 Defaulting to unpruned grid for atomic number  78.
 FoFCou: FMM=F IPFlag=           0 FMFlag=      100000 FMFlg1=           0
         NFxFlg=           0 DoJE=T BraDBF=F KetDBF=T FulRan=T
         wScrn=  0.000000 ICntrl=     500 IOpCl=  0 I1Cent=   200000004 NGrid=           0
         NMat0=    1 NMatS0=      1 NMatT0=    0 NMatD0=    1 NMtDS0=    0 NMtDT0=    0
 Petite list used in FoFCou.
 Keep R1 ints in memory in symmetry-blocked form, NReq=567992664.
 Requested convergence on RMS density matrix=1.00D-08 within 128 cycles.
 Requested convergence on MAX density matrix=1.00D-06.
 Requested convergence on             energy=1.00D-06.
 No special actions if energy rises.
 Defaulting to unpruned grid for atomic number  78.
 Defaulting to unpruned grid for atomic number  78.
 Defaulting to unpruned grid for atomic number  78.
 Defaulting to unpruned grid for atomic number  78.
 Defaulting to unpruned grid for atomic number  78.
 Defaulting to unpruned grid for atomic number  78.
 Defaulting to unpruned grid for atomic number  78.
 Defaulting to unpruned grid for atomic number  78.
 Inv3:  Mode=1 IEnd=     9124608.
 Iteration    1 A*A^-1 deviation from unit magnitude is 7.11D-15 for    630.
 Iteration    1 A*A^-1 deviation from orthogonality  is 4.40D-15 for   1552   1299.
 Iteration    1 A^-1*A deviation from unit magnitude is 7.11D-15 for    166.
 Iteration    1 A^-1*A deviation from orthogonality  is 1.97D-15 for   1296   1035.
 Error on total polarization charges =  0.01496
 SCF Done:  E(RB3LYP) =  -10824.8878552     A.U. after   12 cycles
            NFock= 12  Conv=0.91D-08     -V/T= 2.0090
   2 Symmetry operations used in ECPInt.
 ECPInt:  NShTT=    4278 NPrTT=   21985 LenC2=    3884 LenP2D=   13378.
 LDataN:  DoStor=T MaxTD1= 7 Len=  274
 D1PCM: PCM CHGder 1st derivatives, ID1Alg=3 FixD1E=F DoIter=F DoCFld=F I1PDM=0.
 Calling FoFJK, ICntrl=      2127 FMM=F ISym2X=1 I1Cent= 0 IOpClX= 0 NMat=1 NMatS=1 NMatT=0.
 Defaulting to unpruned grid for atomic number  78.
 Defaulting to unpruned grid for atomic number  78.
 Defaulting to unpruned grid for atomic number  78.
 Defaulting to unpruned grid for atomic number  78.
 Defaulting to unpruned grid for atomic number  78.
 Defaulting to unpruned grid for atomic number  78.
 Defaulting to unpruned grid for atomic number  78.
 Defaulting to unpruned grid for atomic number  78.
 ***** Axes restored to original set *****
 -------------------------------------------------------------------
 Center     Atomic                   Forces (Hartrees/Bohr)
 Number     Number              X              Y              Z
 -------------------------------------------------------------------
      1       78          -0.000000023   -0.042021589    0.000000000
      2       35          -0.000000003   -0.025107168    0.000000000
      3       35           0.028533373   -0.003959626    0.000000000
      4       35          -0.028533378   -0.003959621    0.000000000
      5        7           0.000000376    0.161720493    0.089767727
      6        7           0.000000376    0.161720493   -0.089767727
      7        8           0.043509017   -0.068583376   -0.026148892
      8        8          -0.043509377   -0.068583595   -0.026149041
      9        8           0.043509017   -0.068583376    0.026148892
     10        8          -0.043509377   -0.068583595    0.026149041
     11       35          -0.000000001    0.025940961    0.000000000
 -------------------------------------------------------------------
 Cartesian Forces:  Max     0.161720493 RMS     0.055670666

 GradGradGradGradGradGradGradGradGradGradGradGradGradGradGradGradGradGrad
 Berny optimization.
 Using GEDIIS/GDIIS optimizer.
 FormGI is forming the generalized inverse of G from B-inverse, IUseBI=4.
 Internal  Forces:  Max     0.075072215 RMS     0.025369255
 Search for a local minimum.
 Step number   2 out of a maximum of   64
 All quantities printed in internal units (Hartrees-Bohrs-Radians)
 Mixed Optimization -- RFO/linear search
 Update second derivatives using D2CorX and points    1    2
 DE= -7.24D-02 DEPred=-7.25D-02 R= 9.99D-01
 TightC=F SS=  1.41D+00  RLast= 3.67D-01 DXNew= 5.0454D-01 1.1021D+00
 Trust test= 9.99D-01 RLast= 3.67D-01 DXMaxT set to 5.05D-01
 ITU=  1  0
 Use linear search instead of GDIIS.
 Linear search step of   0.593 exceeds DXMaxT=   0.505 but not scaled.
 Quartic linear search produced a step of  2.00000.
 Iteration  1 RMS(Cart)=  0.12673377 RMS(Int)=  0.01388461
 Iteration  2 RMS(Cart)=  0.00886713 RMS(Int)=  0.00834685
 Iteration  3 RMS(Cart)=  0.00013176 RMS(Int)=  0.00834553
 Iteration  4 RMS(Cart)=  0.00000282 RMS(Int)=  0.00834553
 Iteration  5 RMS(Cart)=  0.00000005 RMS(Int)=  0.00834553
 ClnCor:  largest displacement from symmetrization is 1.61D-08 for atom    10.
 Variable       Old X    -DE/DX   Delta X   Delta X   Delta X     New X
                                 (Linear)    (Quad)   (Total)
    R1        4.64892   0.02511   0.11377   0.00000   0.11377   4.76269
    R2        4.66292   0.02857   0.14178   0.00000   0.14178   4.80470
    R3        4.66292   0.02857   0.14178   0.00000   0.14178   4.80470
    R4        3.87185   0.03793   0.22259   0.00000   0.22259   4.09444
    R5        3.87185   0.03793   0.22259   0.00000   0.22259   4.09444
    R6        4.65072   0.02594   0.11738   0.00000   0.11738   4.76810
    R7        2.49177  -0.07507  -0.15651   0.00000  -0.15651   2.33527
    R8        2.49177  -0.07507  -0.15651   0.00000  -0.15651   2.33527
    R9        2.49177  -0.07507  -0.15651   0.00000  -0.15651   2.33527
   R10        2.49177  -0.07507  -0.15651   0.00000  -0.15651   2.33527
    A1        1.56137  -0.00215  -0.01886   0.00000  -0.01887   1.54250
    A2        1.56137  -0.00215  -0.01886   0.00000  -0.01887   1.54250
    A3        1.58991   0.00846   0.03823   0.00000   0.03703   1.62694
    A4        1.58991   0.00846   0.03823   0.00000   0.03703   1.62694
    A5        1.57098   0.00012   0.00036   0.00000   0.00141   1.57238
    A6        1.57098   0.00012   0.00036   0.00000   0.00141   1.57238
    A7        1.58023   0.00215   0.01886   0.00000   0.01887   1.59910
    A8        1.57098   0.00012   0.00036   0.00000   0.00141   1.57238
    A9        1.57098   0.00012   0.00036   0.00000   0.00141   1.57238
   A10        1.58023   0.00215   0.01886   0.00000   0.01887   1.59909
   A11        1.55168  -0.00846  -0.03823   0.00000  -0.03703   1.51465
   A12        1.55168  -0.00846  -0.03823   0.00000  -0.03703   1.51465
   A13        1.97756   0.01173   0.13386   0.00000   0.11238   2.08995
   A14        1.97756   0.01173   0.13386   0.00000   0.11238   2.08995
   A15        1.90820   0.00847  -0.00487   0.00000  -0.03202   1.87618
   A16        1.97756   0.01173   0.13386   0.00000   0.11238   2.08995
   A17        1.97756   0.01173   0.13386   0.00000   0.11238   2.08995
   A18        1.90820   0.00847  -0.00487   0.00000  -0.03202   1.87618
   A19        3.14159   0.00000   0.00000   0.00000   0.00000   3.14159
   A20        3.12273  -0.00430  -0.03772   0.00000  -0.03773   3.08500
   A21        3.17983   0.01691   0.07647   0.00000   0.07406   3.25389
   A22        3.14159   0.00000   0.00000   0.00000   0.00000   3.14159
   A23        3.14159   0.00000   0.00000   0.00000   0.00000   3.14159
   A24        3.14159   0.00000   0.00000   0.00000   0.00000   3.14159
    D1       -2.04802   0.01557   0.09275   0.00000   0.09762  -1.95040
    D2        2.04802  -0.01557  -0.09275   0.00000  -0.09762   1.95041
    D3        2.67380   0.01772   0.11161   0.00000   0.11644   2.79024
    D4        0.48666  -0.01342  -0.07389   0.00000  -0.07879   0.40786
    D5       -0.48665   0.01342   0.07389   0.00000   0.07879  -0.40786
    D6       -2.67380  -0.01772  -0.11161   0.00000  -0.11644  -2.79024
    D7        1.09357   0.01557   0.09275   0.00000   0.09762   1.19119
    D8       -1.09357  -0.01557  -0.09275   0.00000  -0.09762  -1.19119
    D9        0.00000   0.00000   0.00000   0.00000   0.00000   0.00000
   D10        2.17272   0.02426   0.15664   0.00000   0.15187   2.32458
   D11       -2.17272  -0.02426  -0.15664   0.00000  -0.15187  -2.32458
   D12        0.00000   0.00000   0.00000   0.00000   0.00000   0.00000
   D13        2.04802  -0.01557  -0.09275   0.00000  -0.09762   1.95040
   D14       -2.04802   0.01557   0.09275   0.00000   0.09762  -1.95041
   D15       -2.67380  -0.01772  -0.11161   0.00000  -0.11644  -2.79024
   D16       -0.48666   0.01342   0.07389   0.00000   0.07879  -0.40786
   D17        0.48665  -0.01342  -0.07389   0.00000  -0.07879   0.40786
   D18        2.67380   0.01772   0.11161   0.00000   0.11644   2.79024
   D19       -1.09357  -0.01557  -0.09275   0.00000  -0.09762  -1.19119
   D20        1.09357   0.01557   0.09275   0.00000   0.09762   1.19119
         Item               Value     Threshold  Converged?
 Maximum Force            0.075072     0.000450     NO 
 RMS     Force            0.025369     0.000300     NO 
 Maximum Displacement     0.365903     0.001800     NO 
 RMS     Displacement     0.127887     0.001200     NO 
 Predicted change in Energy=-6.628182D-02
 GradGradGradGradGradGradGradGradGradGradGradGradGradGradGradGradGradGrad

                          Input orientation:                          
 ---------------------------------------------------------------------
 Center     Atomic      Atomic             Coordinates (Angstroms)
 Number     Number       Type             X           Y           Z
 ---------------------------------------------------------------------
      1         78           0       -0.319549    0.361114    0.000000
      2         35           0       -0.319549   -2.159191    0.000000
      3         35           0        2.221973    0.289174    0.000000
      4         35           0       -2.861071    0.289174    0.000000
      5          7           0       -0.319549    0.482703    2.163271
      6          7           0       -0.319549    0.482703   -2.163271
      7          8           0       -1.316113    0.914071    2.753111
      8          8           0        0.677015    0.914072    2.753111
      9          8           0       -1.316113    0.914071   -2.753111
     10          8           0        0.677015    0.914072   -2.753111
     11         35           0       -0.319549    2.884283    0.000000
 ---------------------------------------------------------------------
                    Distance matrix (angstroms):
                    1          2          3          4          5
     1  Pt   0.000000
     2  Br   2.520306   0.000000
     3  Br   2.542540   3.528998   0.000000
     4  Br   2.542540   3.528998   5.083044   0.000000
     5  N    2.166686   3.414579   3.343132   3.343132   0.000000
     6  N    2.166686   3.414579   3.343132   3.343132   4.326543
     7  O    2.979685   4.244726   4.526386   3.218231   1.235770
     8  O    2.979684   4.244727   3.218231   4.526386   1.235770
     9  O    2.979685   4.244726   4.526386   3.218231   5.034882
    10  O    2.979684   4.244727   3.218231   4.526386   5.034881
    11  Br   2.523169   5.043474   3.632345   3.632345   3.232233
                    6          7          8          9         10
     6  N    0.000000
     7  O    5.034882   0.000000
     8  O    5.034881   1.993128   0.000000
     9  O    1.235770   5.506222   5.855855   0.000000
    10  O    1.235770   5.855855   5.506221   1.993128   0.000000
    11  Br   3.232233   3.529093   3.529092   3.529093   3.529092
                   11
    11  Br   0.000000
 Stoichiometry    Br4N2O4Pt(2-)
 Framework group  CS[SG(Br4Pt),X(N2O4)]
 Deg. of freedom    16
 Full point group                 CS      NOp   2
 Largest Abelian subgroup         CS      NOp   2
 Largest concise Abelian subgroup CS      NOp   2
                         Standard orientation:                         
 ---------------------------------------------------------------------
 Center     Atomic      Atomic             Coordinates (Angstroms)
 Number     Number       Type             X           Y           Z
 ---------------------------------------------------------------------
      1         78           0        0.000000   -0.054777    0.000000
      2         35           0        0.000000   -2.575083    0.000000
      3         35           0        2.541522   -0.126718    0.000000
      4         35           0       -2.541522   -0.126718    0.000000
      5          7           0        0.000000    0.066811    2.163271
      6          7           0        0.000000    0.066811   -2.163271
      7          8           0       -0.996564    0.498179    2.753111
      8          8           0        0.996564    0.498180    2.753111
      9          8           0       -0.996564    0.498179   -2.753111
     10          8           0        0.996564    0.498180   -2.753111
     11         35           0        0.000000    2.468391    0.000000
 ---------------------------------------------------------------------
 Rotational constants (GHZ):      0.3083015      0.2974456      0.2399376
 Basis read from rwf:  (5D, 7F)
 Pseudo-potential data read from rwf file.
 There are   162 symmetry adapted cartesian basis functions of A'  symmetry.
 There are    92 symmetry adapted cartesian basis functions of A"  symmetry.
 There are   145 symmetry adapted basis functions of A'  symmetry.
 There are    89 symmetry adapted basis functions of A"  symmetry.
   234 basis functions,   513 primitive gaussians,   254 cartesian basis functions
   103 alpha electrons      103 beta electrons
       nuclear repulsion energy      2788.1208018972 Hartrees.
 NAtoms=   11 NActive=   11 NUniq=    8 SFac= 1.89D+00 NAtFMM=   60 NAOKFM=F Big=F
 Integral buffers will be    131072 words long.
 Raffenetti 2 integral format.
 Two-electron integral symmetry is turned on.
 ------------------------------------------------------------------------------
 Polarizable Continuum Model (PCM)
 =================================
 Model                : PCM (using non-symmetric T matrix).
 Atomic radii         : UFF (Universal Force Field).
 Polarization charges : Total charges.
 Charge compensation  : None.
 Solution method      : On-the-fly selection.
 Cavity type          : Scaled VdW (van der Waals Surface) (Alpha=1.100).
 Cavity algorithm     : GePol (No added spheres)
                        Default sphere list used, NSphG=   11.
                        Lebedev-Laikov grids with approx.  5.0 points / Ang**2.
                        Smoothing algorithm: Karplus/York (Gamma=1.0000).
                        Polarization charges: spherical gaussians, with
                                              point-specific exponents (IZeta= 3).
                        Self-potential: point-specific (ISelfS= 7).
                        Self-field    : sphere-specific E.n sum rule (ISelfD= 2).
 1st derivatives      : Analytical E(r).r(x)/FMM algorithm (CHGder, D1EAlg=3).
                        Cavity 1st derivative terms included.
 Solvent              : Water, Eps=  78.355300 Eps(inf)=   1.777849
 ------------------------------------------------------------------------------
 Spheres list:
 ISph  on   Nord     Re0    Alpha      Xe            Ye            Ze
    1  Pt      1    1.3770  1.100      0.000000     -0.054777      0.000000
    2  Br      2    2.0945  1.100      0.000000     -2.575083      0.000000
    3  Br      3    2.0945  1.100      2.541522     -0.126718      0.000000
    4  Br      4    2.0945  1.100     -2.541522     -0.126718      0.000000
    5   N      5    1.8300  1.100      0.000000      0.066811      2.163271
    6   N      6    1.8300  1.100      0.000000      0.066811     -2.163271
    7   O      7    1.7500  1.100     -0.996564      0.498179      2.753111
    8   O      8    1.7500  1.100      0.996564      0.498180      2.753111
    9   O      9    1.7500  1.100     -0.996564      0.498179     -2.753111
   10   O     10    1.7500  1.100      0.996564      0.498180     -2.753111
   11  Br     11    2.0945  1.100      0.000000      2.468391      0.000000
 ------------------------------------------------------------------------------
 One-electron integrals computed using PRISM.
   2 Symmetry operations used in ECPInt.
 ECPInt:  NShTT=    4278 NPrTT=   21985 LenC2=    3840 LenP2D=   13163.
 LDataN:  DoStor=T MaxTD1= 6 Len=  172
 NBasis=   234 RedAO= T EigKep=  4.07D-03  NBF=   145    89
 NBsUse=   234 1.00D-06 EigRej= -1.00D+00 NBFU=   145    89
 Defaulting to unpruned grid for atomic number  78.
 Initial guess from the checkpoint file:  "/home/scr/diego/Gau-29671.chk"
 B after Tr=     0.000000    0.000000    0.000000
         Rot=    1.000000    0.000000    0.000000    0.000000 Ang=   0.00 deg.
 Initial guess orbital symmetries:
       Occupied  (A') (A') (A') (A') (A') (A') (A') (A') (A') (A")
                 (A') (A') (A") (A') (A') (A') (A') (A') (A") (A")
                 (A') (A") (A') (A") (A") (A') (A') (A') (A') (A')
                 (A') (A') (A") (A') (A') (A') (A") (A') (A') (A')
                 (A") (A") (A') (A') (A") (A') (A') (A") (A') (A")
                 (A') (A') (A') (A') (A') (A") (A") (A') (A") (A")
                 (A") (A') (A') (A") (A') (A') (A') (A") (A") (A')
                 (A') (A') (A') (A') (A') (A") (A') (A") (A") (A")
                 (A') (A') (A') (A') (A') (A") (A") (A') (A') (A')
                 (A") (A") (A') (A") (A") (A') (A') (A') (A") (A')
                 (A") (A') (A")
       Virtual   (A') (A') (A') (A') (A') (A') (A') (A') (A') (A')
                 (A') (A') (A') (A') (A') (A') (A') (A') (A') (A')
                 (A') (A') (A') (A') (A') (A') (A') (A') (A') (A')
                 (A') (A') (A') (A') (A') (A') (A') (A') (A') (A')
                 (A') (A') (A') (A') (A') (A') (A') (A') (A') (A')
                 (A') (A') (A') (A') (A') (A') (A') (A') (A') (A')
                 (A') (A') (A') (A') (A') (A') (A') (A') (A') (A')
                 (A') (A') (A') (A') (A') (A') (A') (A") (A") (A")
                 (A") (A") (A") (A") (A") (A") (A") (A") (A") (A")
                 (A") (A") (A") (A") (A") (A") (A") (A") (A") (A")
                 (A") (A") (A") (A") (A") (A") (A") (A") (A") (A")
                 (A") (A") (A") (A") (A") (A") (A") (A") (A") (A")
                 (A") (A") (A") (A") (A") (A") (A") (A") (A") (A")
                 (A")
 ExpMin= 2.90D-02 ExpMax= 1.13D+05 ExpMxC= 1.70D+04 IAcc=3 IRadAn=         5 AccDes= 0.00D+00
 Harris functional with IExCor=  402 and IRadAn=       5 diagonalized for initial guess.
 HarFok:  IExCor=  402 AccDes= 0.00D+00 IRadAn=         5 IDoV= 1 UseB2=F ITyADJ=14
 ICtDFT=  3500011 ScaDFX=  1.000000  1.000000  1.000000  1.000000
 Defaulting to unpruned grid for atomic number  78.
 Defaulting to unpruned grid for atomic number  78.
 Defaulting to unpruned grid for atomic number  78.
 Defaulting to unpruned grid for atomic number  78.
 Defaulting to unpruned grid for atomic number  78.
 Defaulting to unpruned grid for atomic number  78.
 Defaulting to unpruned grid for atomic number  78.
 Defaulting to unpruned grid for atomic number  78.
 FoFCou: FMM=F IPFlag=           0 FMFlag=      100000 FMFlg1=           0
         NFxFlg=           0 DoJE=T BraDBF=F KetDBF=T FulRan=T
         wScrn=  0.000000 ICntrl=     500 IOpCl=  0 I1Cent=   200000004 NGrid=           0
         NMat0=    1 NMatS0=      1 NMatT0=    0 NMatD0=    1 NMtDS0=    0 NMtDT0=    0
 Petite list used in FoFCou.
 Keep R1 ints in memory in symmetry-blocked form, NReq=567992664.
 Requested convergence on RMS density matrix=1.00D-08 within 128 cycles.
 Requested convergence on MAX density matrix=1.00D-06.
 Requested convergence on             energy=1.00D-06.
 No special actions if energy rises.
 Defaulting to unpruned grid for atomic number  78.
 Defaulting to unpruned grid for atomic number  78.
 Defaulting to unpruned grid for atomic number  78.
 Defaulting to unpruned grid for atomic number  78.
 Defaulting to unpruned grid for atomic number  78.
 Defaulting to unpruned grid for atomic number  78.
 Defaulting to unpruned grid for atomic number  78.
 Defaulting to unpruned grid for atomic number  78.
 Inv3:  Mode=1 IEnd=    10002828.
 Iteration    1 A*A^-1 deviation from unit magnitude is 7.11D-15 for   1783.
 Iteration    1 A*A^-1 deviation from orthogonality  is 4.53D-15 for   1626   1361.
 Iteration    1 A^-1*A deviation from unit magnitude is 7.22D-15 for   1783.
 Iteration    1 A^-1*A deviation from orthogonality  is 2.59D-14 for    963    657.
 Error on total polarization charges =  0.01412
 SCF Done:  E(RB3LYP) =  -10824.9483266     A.U. after   14 cycles
            NFock= 14  Conv=0.17D-08     -V/T= 2.0090
   2 Symmetry operations used in ECPInt.
 ECPInt:  NShTT=    4278 NPrTT=   21985 LenC2=    3840 LenP2D=   13163.
 LDataN:  DoStor=T MaxTD1= 7 Len=  274
 D1PCM: PCM CHGder 1st derivatives, ID1Alg=3 FixD1E=F DoIter=F DoCFld=F I1PDM=0.
 Calling FoFJK, ICntrl=      2127 FMM=F ISym2X=1 I1Cent= 0 IOpClX= 0 NMat=1 NMatS=1 NMatT=0.
 Defaulting to unpruned grid for atomic number  78.
 Defaulting to unpruned grid for atomic number  78.
 Defaulting to unpruned grid for atomic number  78.
 Defaulting to unpruned grid for atomic number  78.
 Defaulting to unpruned grid for atomic number  78.
 Defaulting to unpruned grid for atomic number  78.
 Defaulting to unpruned grid for atomic number  78.
 Defaulting to unpruned grid for atomic number  78.
 ***** Axes restored to original set *****
 -------------------------------------------------------------------
 Center     Atomic                   Forces (Hartrees/Bohr)
 Number     Number              X              Y              Z
 -------------------------------------------------------------------
      1       78           0.000000022   -0.022842085    0.000000000
      2       35          -0.000000002   -0.007513912    0.000000000
      3       35           0.005042951   -0.000289455    0.000000000
      4       35          -0.005042944   -0.000289449    0.000000000
      5        7          -0.000000029    0.097192957    0.057313324
      6        7          -0.000000029    0.097192957   -0.057313324
      7        8          -0.055198390   -0.042908603   -0.029864541
      8        8           0.055198407   -0.042908542   -0.029864561
      9        8          -0.055198390   -0.042908603    0.029864541
     10        8           0.055198407   -0.042908542    0.029864561
     11       35          -0.000000003    0.008183277    0.000000000
 -------------------------------------------------------------------
 Cartesian Forces:  Max     0.097192957 RMS     0.038643041

 GradGradGradGradGradGradGradGradGradGradGradGradGradGradGradGradGradGrad
 Berny optimization.
 Using GEDIIS/GDIIS optimizer.
 FormGI is forming the generalized inverse of G from B-inverse, IUseBI=4.
 Internal  Forces:  Max     0.080427705 RMS     0.021716501
 Search for a local minimum.
 Step number   3 out of a maximum of   64
 All quantities printed in internal units (Hartrees-Bohrs-Radians)
 Mixed Optimization -- RFO/linear search
 Update second derivatives using D2CorX and points    2    3
 ITU=  0  1  0
 Use linear search instead of GDIIS.
     Eigenvalues ---    0.00230   0.00230   0.01309   0.01313   0.06405
     Eigenvalues ---    0.06461   0.10566   0.11923   0.12401   0.12755
     Eigenvalues ---    0.13312   0.15561   0.19509   0.19509   0.19510
     Eigenvalues ---    0.19889   0.20376   0.24721   0.24930   0.24937
     Eigenvalues ---    0.25000   0.25000   0.33529   0.52948   0.52948
     Eigenvalues ---    0.52948   0.63188
 RFO step:  Lambda=-8.77289583D-02 EMin= 2.30000000D-03
 Quartic linear search produced a step of -0.01636.
 Iteration  1 RMS(Cart)=  0.05556410 RMS(Int)=  0.01075366
 Iteration  2 RMS(Cart)=  0.01150119 RMS(Int)=  0.00110996
 Iteration  3 RMS(Cart)=  0.00009271 RMS(Int)=  0.00110700
 Iteration  4 RMS(Cart)=  0.00000013 RMS(Int)=  0.00110700
 ClnCor:  largest displacement from symmetrization is 2.94D-10 for atom    11.
 Variable       Old X    -DE/DX   Delta X   Delta X   Delta X     New X
                                 (Linear)    (Quad)   (Total)
    R1        4.76269   0.00751  -0.00186   0.04493   0.04307   4.80575
    R2        4.80470   0.00505  -0.00232   0.04175   0.03943   4.84413
    R3        4.80470   0.00505  -0.00232   0.04175   0.03943   4.84413
    R4        4.09444  -0.00177  -0.00364   0.03200   0.02836   4.12280
    R5        4.09444  -0.00177  -0.00364   0.03200   0.02836   4.12280
    R6        4.76810   0.00818  -0.00192   0.04755   0.04563   4.81373
    R7        2.33527   0.01528   0.00256  -0.01675  -0.01419   2.32108
    R8        2.33527   0.01528   0.00256  -0.01675  -0.01419   2.32108
    R9        2.33527   0.01528   0.00256  -0.01675  -0.01419   2.32108
   R10        2.33527   0.01528   0.00256  -0.01675  -0.01419   2.32108
    A1        1.54250  -0.00009   0.00031  -0.00396  -0.00366   1.53884
    A2        1.54250  -0.00009   0.00031  -0.00396  -0.00366   1.53884
    A3        1.62694   0.00618  -0.00061   0.02993   0.02990   1.65685
    A4        1.62694   0.00618  -0.00061   0.02993   0.02990   1.65685
    A5        1.57238   0.00018  -0.00002   0.00107   0.00116   1.57354
    A6        1.57238   0.00018  -0.00002   0.00107   0.00116   1.57354
    A7        1.59910   0.00009  -0.00031   0.00396   0.00366   1.60276
    A8        1.57238   0.00018  -0.00002   0.00107   0.00116   1.57354
    A9        1.57238   0.00018  -0.00002   0.00107   0.00116   1.57354
   A10        1.59909   0.00009  -0.00031   0.00396   0.00366   1.60276
   A11        1.51465  -0.00618   0.00061  -0.02993  -0.02990   1.48475
   A12        1.51465  -0.00618   0.00061  -0.02993  -0.02990   1.48475
   A13        2.08995  -0.04272  -0.00184  -0.05330  -0.05774   2.03221
   A14        2.08995  -0.04272  -0.00184  -0.05330  -0.05774   2.03221
   A15        1.87618   0.08043   0.00052   0.23200   0.22924   2.10542
   A16        2.08995  -0.04272  -0.00184  -0.05330  -0.05774   2.03221
   A17        2.08995  -0.04272  -0.00184  -0.05330  -0.05774   2.03221
   A18        1.87618   0.08043   0.00052   0.23200   0.22924   2.10542
   A19        3.14159   0.00000   0.00000   0.00000   0.00000   3.14159
   A20        3.08500  -0.00018   0.00062  -0.00793  -0.00732   3.07767
   A21        3.25389   0.01235  -0.00121   0.05986   0.05981   3.31370
   A22        3.14159   0.00000   0.00000   0.00000   0.00000   3.14159
   A23        3.14159   0.00000   0.00000   0.00000   0.00000   3.14159
   A24        3.14159   0.00000   0.00000   0.00000   0.00000   3.14159
    D1       -1.95040   0.01272  -0.00160   0.13686   0.13499  -1.81542
[...]
 Vibration     6          0.603              1.952              3.534
 Vibration     7          0.605              1.946              3.381
 Vibration     8          0.607              1.940              3.234
 Vibration     9          0.608              1.936              3.160
 Vibration    10          0.609              1.932              3.091
 Vibration    11          0.625              1.882              2.457
 Vibration    12          0.629              1.869              2.346
 Vibration    13          0.641              1.831              2.075
 Vibration    14          0.644              1.819              2.005
 Vibration    15          0.658              1.777              1.793
 Vibration    16          0.661              1.769              1.757
 Vibration    17          0.673              1.732              1.610
 Vibration    18          0.725              1.581              1.179
 Vibration    19          0.881              1.191              0.595
 Vibration    20          0.977              0.996              0.421
                       Q            Log10(Q)             Ln(Q)
 Total Bot       0.175787D+10          9.244987         21.287369
 Total V=0       0.297432D+22         21.473388         49.444304
 Vib (Bot)       0.509794D-06         -6.292605        -14.489259
 Vib (Bot)    1  0.330130D+01          0.518685          1.194317
 Vib (Bot)    2  0.263243D+01          0.420357          0.967908
 Vib (Bot)    3  0.248817D+01          0.395880          0.911548
 Vib (Bot)    4  0.239376D+01          0.379080          0.872864
 Vib (Bot)    5  0.227065D+01          0.356150          0.820066
 Vib (Bot)    6  0.213997D+01          0.330408          0.760792
 Vib (Bot)    7  0.197525D+01          0.295621          0.680693
 Vib (Bot)    8  0.182772D+01          0.261910          0.603071
 Vib (Bot)    9  0.175747D+01          0.244888          0.563876
 Vib (Bot)   10  0.169428D+01          0.228984          0.527256
 Vib (Bot)   11  0.119962D+01          0.079045          0.182008
 Vib (Bot)   12  0.112723D+01          0.052012          0.119762
 Vib (Bot)   13  0.963681D+00         -0.016067         -0.036995
 Vib (Bot)   14  0.924302D+00         -0.034186         -0.078716
 Vib (Bot)   15  0.812119D+00         -0.090380         -0.208109
 Vib (Bot)   16  0.793632D+00         -0.100381         -0.231135
 Vib (Bot)   17  0.722349D+00         -0.141253         -0.325247
 Vib (Bot)   18  0.532345D+00         -0.273807         -0.630463
 Vib (Bot)   19  0.304779D+00         -0.516014         -1.188167
 Vib (Bot)   20  0.237783D+00         -0.623818         -1.436395
 Vib (V=0)       0.862574D+06          5.935796         13.667676
 Vib (V=0)    1  0.383895D+01          0.584213          1.345200
 Vib (V=0)    2  0.317950D+01          0.502358          1.156723
 Vib (V=0)    3  0.303791D+01          0.482575          1.111171
 Vib (V=0)    4  0.294542D+01          0.469147          1.080251
 Vib (V=0)    5  0.282505D+01          0.451026          1.038525
 Vib (V=0)    6  0.269761D+01          0.430978          0.992365
 Vib (V=0)    7  0.253755D+01          0.404414          0.931197
 Vib (V=0)    8  0.239488D+01          0.379284          0.873333
 Vib (V=0)    9  0.232721D+01          0.366836          0.844671
 Vib (V=0)   10  0.226651D+01          0.355358          0.818243
 Vib (V=0)   11  0.179965D+01          0.255189          0.587594
 Vib (V=0)   12  0.173314D+01          0.238835          0.549937
 Vib (V=0)   13  0.158567D+01          0.200213          0.461008
 Vib (V=0)   14  0.155087D+01          0.190576          0.438818
 Vib (V=0)   15  0.145370D+01          0.162474          0.374110
 Vib (V=0)   16  0.143800D+01          0.157760          0.363256
 Vib (V=0)   17  0.137851D+01          0.139411          0.321006
 Vib (V=0)   18  0.123034D+01          0.090024          0.207288
 Vib (V=0)   19  0.108557D+01          0.035657          0.082104
 Vib (V=0)   20  0.105366D+01          0.022701          0.052271
 Electronic      0.100000D+01          0.000000          0.000000
 Translational   0.581467D+09          8.764525         20.181064
 Rotational      0.593017D+07          6.773067         15.595564
 ***** Axes restored to original set *****
 -------------------------------------------------------------------
 Center     Atomic                   Forces (Hartrees/Bohr)
 Number     Number              X              Y              Z
 -------------------------------------------------------------------
      1       78          -0.000038272   -0.000007414    0.000000000
      2       35           0.000210356    0.000019333    0.000000000
      3       35           0.000008012    0.000236041    0.000000000
      4       35           0.000021300   -0.000238965    0.000000000
      5        7           0.000006822    0.000001520   -0.000044631
      6        7           0.000006822    0.000001520    0.000044631
      7        8          -0.000071803   -0.000067612    0.000002979
      8        8           0.000062653    0.000076065   -0.000003990
      9        8          -0.000071803   -0.000067612   -0.000002979
     10        8           0.000062653    0.000076065    0.000003990
     11       35          -0.000196740   -0.000028941    0.000000000
 -------------------------------------------------------------------
 Cartesian Forces:  Max     0.000238965 RMS     0.000085641
 FormGI is forming the generalized inverse of G from B-inverse, IUseBI=4.

 GradGradGradGradGradGradGradGradGradGradGradGradGradGradGradGradGradGrad
 Berny optimization.
 Internal  Forces:  Max     0.000045643 RMS     0.000013950
 Search for a local minimum.
 Step number   1 out of a maximum of    2
 All quantities printed in internal units (Hartrees-Bohrs-Radians)
 Second derivative matrix not updated -- analytic derivatives used.
 ITU=  0
     Eigenvalues ---   -0.00020   0.00395   0.02380   0.02632   0.02962
     Eigenvalues ---    0.04938   0.05069   0.05259   0.06593   0.06886
     Eigenvalues ---    0.07275   0.08412   0.08448   0.08771   0.10388
     Eigenvalues ---    0.10723   0.12383   0.12601   0.14242   0.15340
     Eigenvalues ---    0.16673   0.30061   0.35557   0.57113   0.57505
     Eigenvalues ---    0.82140   0.84502
 Eigenvalue     1 is  -1.95D-04 should be greater than     0.000000 Eigenvector:
                          D9        D11       D10       D12       D15
   1                   -0.34726  -0.34723  -0.34723  -0.34719  -0.17363
                          D3        D13       D1        D19       D7
   1                   -0.17363  -0.17362  -0.17362  -0.17362  -0.17362
 Angle between quadratic step and forces=  57.09 degrees.
 Linear search not attempted -- first point.
 Iteration  1 RMS(Cart)=  0.00052172 RMS(Int)=  0.00000012
 Iteration  2 RMS(Cart)=  0.00000012 RMS(Int)=  0.00000001
 ClnCor:  largest displacement from symmetrization is 4.10D-09 for atom    10.
 Variable       Old X    -DE/DX   Delta X   Delta X   Delta X     New X
                                 (Linear)    (Quad)   (Total)
    R1        4.84540   0.00000   0.00000   0.00004   0.00004   4.84544
    R2        4.84160   0.00004   0.00000   0.00058   0.00058   4.84217
    R3        4.84196   0.00001   0.00000   0.00022   0.00022   4.84217
    R4        4.03972  -0.00005   0.00000  -0.00055  -0.00055   4.03917
    R5        4.03972  -0.00005   0.00000  -0.00055  -0.00055   4.03917
    R6        4.84549  -0.00001   0.00000  -0.00006  -0.00006   4.84544
    R7        2.30519   0.00001   0.00000   0.00004   0.00004   2.30523
    R8        2.30522   0.00000   0.00000   0.00002   0.00002   2.30523
    R9        2.30519   0.00001   0.00000   0.00004   0.00004   2.30523
   R10        2.30522   0.00000   0.00000   0.00002   0.00002   2.30523
    A1        1.60069   0.00001   0.00000   0.00020   0.00020   1.60089
    A2        1.54104  -0.00002   0.00000  -0.00034  -0.00034   1.54071
    A3        1.57071   0.00001   0.00000   0.00009   0.00009   1.57080
    A4        1.57071   0.00001   0.00000   0.00009   0.00009   1.57080
    A5        1.57078   0.00000   0.00000   0.00001   0.00001   1.57080
    A6        1.57078   0.00000   0.00000   0.00001   0.00001   1.57080
    A7        1.54116  -0.00002   0.00000  -0.00045  -0.00045   1.54071
    A8        1.57081   0.00000   0.00000  -0.00001  -0.00001   1.57080
    A9        1.57081   0.00000   0.00000  -0.00001  -0.00001   1.57080
   A10        1.60029   0.00002   0.00000   0.00059   0.00059   1.60089
   A11        1.57088  -0.00001   0.00000  -0.00009  -0.00009   1.57080
   A12        1.57088  -0.00001   0.00000  -0.00009  -0.00009   1.57080
   A13        2.06913   0.00000   0.00000  -0.00001  -0.00001   2.06912
   A14        2.06908   0.00000   0.00000   0.00003   0.00003   2.06912
   A15        2.14498   0.00001   0.00000  -0.00003  -0.00003   2.14495
   A16        2.06913   0.00000   0.00000  -0.00001  -0.00001   2.06912
   A17        2.06908   0.00000   0.00000   0.00003   0.00003   2.06912
   A18        2.14498   0.00001   0.00000  -0.00003  -0.00003   2.14495
   A19        3.14185  -0.00001   0.00000  -0.00026  -0.00026   3.14159
   A20        3.14173   0.00000   0.00000  -0.00014  -0.00014   3.14159
   A21        3.14142   0.00002   0.00000   0.00017   0.00017   3.14159
   A22        3.14159   0.00000   0.00000   0.00000   0.00000   3.14159
   A23        3.14159   0.00000   0.00000   0.00000   0.00000   3.14159
   A24        3.14162   0.00000   0.00000  -0.00003  -0.00003   3.14159
    D1       -2.35211   0.00001   0.00000   0.00077   0.00077  -2.35133
    D2        0.78947   0.00001   0.00000   0.00079   0.00079   0.79026
    D3        2.33039   0.00000   0.00000   0.00057   0.00057   2.33097
    D4       -0.81122  -0.00001   0.00000   0.00059   0.00059  -0.81062
    D5       -0.81106  -0.00001   0.00000   0.00044   0.00044  -0.81062
    D6        2.33051  -0.00001   0.00000   0.00046   0.00046   2.33097
    D7        0.78923   0.00002   0.00000   0.00103   0.00103   0.79026
    D8       -2.35238   0.00002   0.00000   0.00105   0.00105  -2.35133
    D9        0.00000   0.00000   0.00000   0.00000   0.00000   0.00000
   D10       -3.14152   0.00000   0.00000  -0.00007  -0.00007  -3.14159
   D11        3.14152   0.00000   0.00000   0.00007   0.00007   3.14159
   D12        0.00000   0.00000   0.00000   0.00000   0.00000   0.00000
   D13        2.35211  -0.00001   0.00000  -0.00077  -0.00077   2.35133
   D14       -0.78947  -0.00001   0.00000  -0.00079  -0.00079  -0.79026
   D15       -2.33039   0.00000   0.00000  -0.00057  -0.00057  -2.33097
   D16        0.81122   0.00001   0.00000  -0.00059  -0.00059   0.81062
   D17        0.81106   0.00001   0.00000  -0.00044  -0.00044   0.81062
   D18       -2.33051   0.00001   0.00000  -0.00046  -0.00046  -2.33097
   D19       -0.78923  -0.00002   0.00000  -0.00103  -0.00103  -0.79026
   D20        2.35238  -0.00002   0.00000  -0.00105  -0.00105   2.35133
         Item               Value     Threshold  Converged?
 Maximum Force            0.000046     0.000450     YES
 RMS     Force            0.000014     0.000300     YES
 Maximum Displacement     0.002002     0.001800     NO 
 RMS     Displacement     0.000522     0.001200     YES
 Predicted change in Energy=-9.154997D-08
 GradGradGradGradGradGradGradGradGradGradGradGradGradGradGradGradGradGrad

 1\1\GINC-NEQC17\Freq\RB3LYP\Gen\Br4N2O4Pt1(2-)\DIEGO\18-Aug-2021\0\\#N
  Geom=AllCheck Guess=TCheck SCRF=Check GenChk RB3LYP/ChkBas Freq\\Estr
 utura 13\\-2,1\Pt,-0.3195032939,0.5715711065,0.\Br,-0.0520595529,-1.97
 85173906,0.\Br,2.2194592204,0.9148356495,0.\Br,-2.8587021594,0.2286303
 374,0.\N,-0.3194521582,0.5713926821,2.1377276414\N,-0.3194521582,0.571
 3926821,-2.1377276414\O,-1.1547491329,1.2424387406,2.7208439301\O,0.51
 58863441,-0.099788933,2.7206537643\O,-1.1547491329,1.2424387406,-2.720
 8439301\O,0.5158863441,-0.099788933,-2.7206537643\Br,-0.5876033233,3.1
 216401043,0.\\Version=EM64L-G09RevD.01\State=1-A'\HF=-10825.0241563\RM
 SD=5.617e-09\RMSF=8.564e-05\ZeroPoint=0.0265854\Thermal=0.0414954\Dipo
 le=0.0000981,0.0002353,0.\DipoleDeriv=1.2727288,0.2366253,0.,0.2365446
 ,1.3890828,0.,0.,0.,0.8968854,-0.0728931,0.1315786,0.,0.1302385,-1.419
 3219,0.,0.,0.,-0.1365083,-1.3888768,-0.2183161,0.,-0.2115394,-0.084362
 7,0.,0.,0.,-0.1345418,-1.3888655,-0.2182907,0.,-0.2113954,-0.0843616,0
 .,0.,0.,-0.1346833,1.4976146,-0.8813724,-0.0001135,-0.8839706,1.103417
 1,-0.0001479,0.0000027,-0.0000595,2.5174727,1.4976146,-0.8813724,0.000
 1135,-0.8839706,1.1034171,0.0001479,-0.0000027,0.0000595,2.5174727,-0.
 8360616,0.42479,0.4304692,0.4234131,-0.6471215,-0.343564,0.3987072,-0.
 3192257,-1.8475155,-0.8361023,0.4248064,-0.4303656,0.423466,-0.6471932
 ,0.3437374,-0.398714,0.3192572,-1.8472606,-0.8360616,0.42479,-0.430469
 2,0.4234131,-0.6471215,0.343564,-0.3987072,0.3192257,-1.8475155,-0.836
 1022,0.4248064,0.4303656,0.423466,-0.6471932,-0.3437374,0.398714,-0.31
 92572,-1.8472606,-0.072995,0.1319549,0.,0.1303348,-1.4192414,0.,0.,0.,
 -0.1365452\Polar=261.0795838,-10.2651311,257.4926045,0.,0.,205.8353459
 \PG=CS [SG(Br4Pt1),X(N2O4)]\NImag=1\\0.26501363,-0.02011433,0.25478609
 ,0.,0.,0.17818624,-0.01549392,0.00625076,0.,0.01231098,0.00731884,-0.0
 6787246,0.,-0.00854312,0.07807175,0.,0.,-0.00974134,0.,0.,0.01033853,-
 0.06884722,-0.00530309,0.,0.00194975,-0.00224762,0.,0.08170199,-0.0064
 4924,-0.01531155,0.,-0.00363916,0.00145707,0.,0.00694883,0.01205888,0.
 ,0.,-0.00978220,0.,0.,0.00307820,0.,0.,0.01076819,-0.06878394,-0.00529
 214,0.,-0.00262927,0.00375665,0.,-0.00933471,-0.00205917,0.,0.08162300
 ,-0.00643356,-0.01531161,0.,0.00637147,0.00014694,0.,-0.00206028,0.002
 50547,0.,0.00693986,0.01200839,0.,0.,-0.00978462,0.,0.,0.00180776,0.,0
 .,0.00267943,0.,0.,0.01075968,-0.04992849,-0.01205919,-0.00000360,-0.0
 0056429,-0.00026586,-0.00239359,-0.00083832,0.00144428,0.00110180,-0.0
 0083799,0.00144429,-0.00109969,0.60005119,-0.01199416,-0.05525020,0.00
 000205,0.00130097,-0.00038530,-0.00152748,-0.00009945,-0.00045097,0.00
 270669,-0.00009761,-0.00045027,-0.00270460,-0.36656114,0.43823899,0.00
 000024,-0.00001205,-0.06865473,-0.00040644,-0.00230869,-0.00422361,0.0
 0217490,0.00076685,-0.00428894,-0.00217234,-0.00076520,-0.00428695,-0.
 00006997,0.00002343,0.57277892,-0.04992849,-0.01205919,0.00000360,-0.0
 0056429,-0.00026586,0.00239359,-0.00083832,0.00144428,-0.00110180,-0.0
 0083799,0.00144429,0.00109969,0.02036433,0.00383267,-0.00000076,0.6000
 5119,-0.01199416,-0.05525020,-0.00000205,0.00130097,-0.00038530,0.0015
 2748,-0.00009945,-0.00045097,-0.00270669,-0.00009761,-0.00045027,0.002
 70460,0.00383267,0.02214551,0.00000584,-0.36656114,0.43823899,-0.00000
 024,0.00001205,-0.06865473,0.00040644,0.00230869,-0.00422361,-0.002174
 90,-0.00076685,-0.00428894,0.00217234,0.00076520,-0.00428695,0.0000007
 6,-0.00000584,0.00673985,0.00006997,-0.00002343,0.57277892,0.00086716,
 0.01057878,0.00178020,0.00044806,-0.00020164,0.00077397,0.00051998,-0.
 00045540,0.00022681,-0.00107690,-0.00157860,-0.00429979,-0.28168993,0.
 18808712,0.16378292,-0.00215766,-0.00193530,-0.00272974,0.36480039,0.0
 1058451,0.00551972,-0.00139082,-0.00039081,0.00029928,-0.00010260,-0.0
 0028533,0.00034432,-0.00072762,-0.00016248,-0.00030961,0.00048688,0.18
 812998,-0.19868567,-0.13161672,-0.00192415,-0.00302413,0.00217270,-0.2
 7612896,0.24309605,0.01849282,-0.01486589,-0.00045691,0.00003000,0.000
 08873,0.00050053,-0.00010972,0.00002855,0.00052789,-0.00140671,-0.0005
 1267,-0.00051126,0.16808092,-0.13505340,-0.25453166,-0.00329578,0.0026
 4656,0.00756457,-0.17459329,0.14033505,0.21464475,0.00086504,0.0105801
 3,-0.00177897,0.00067010,-0.00017040,0.00127276,-0.00109630,-0.0015711
 0,0.00431464,0.00052042,-0.00045507,-0.00022721,-0.28168105,0.18810320
 ,-0.16371467,-0.00215753,-0.00193403,0.00273063,-0.08366367,0.08135201
 ,-0.00770178,0.36481953,0.01058843,0.00551313,0.00139131,-0.00162646,-
 0.00101682,-0.00395402,-0.00015840,-0.00031883,-0.00049170,-0.00028572
 ,0.00034430,0.00072743,0.18814959,-0.19873014,0.13160057,-0.00192463,-
 0.00302439,-0.00217321,0.08134939,-0.04771289,0.00620081,-0.27615802,0
 .24315577,-0.01848823,0.01486891,-0.00045575,-0.00057578,-0.00107031,-
 0.00035528,0.00142221,0.00050268,-0.00051243,0.00010937,-0.00002870,0.
 00052757,-0.16801323,0.13503772,-0.25444436,0.00329480,-0.00264407,0.0
 0756577,0.00772736,-0.00622821,0.05488268,0.17447689,-0.14028524,0.214
 55655,0.00086716,0.01057878,-0.00178020,0.00044806,-0.00020164,-0.0007
 7397,0.00051998,-0.00045540,-0.00022681,-0.00107690,-0.00157860,0.0042
 9979,-0.00215766,-0.00193530,0.00272974,-0.28168993,0.18808712,-0.1637
 8292,0.00247008,-0.00106435,-0.00433768,-0.00119382,0.00152113,-0.0042
 6008,0.36480039,0.01058451,0.00551972,0.00139082,-0.00039081,0.0002992
 8,0.00010260,-0.00028533,0.00034432,0.00072762,-0.00016248,-0.00030961
 ,-0.00048688,-0.00192415,-0.00302413,-0.00217270,0.18812998,-0.1986856
 7,0.13161672,-0.00106435,0.00200004,0.00346961,0.00152029,-0.00051162,
 0.00340736,-0.27612896,0.24309605,-0.01849282,0.01486590,-0.00045691,-
 0.00003000,-0.00008873,0.00050053,0.00010972,-0.00002855,0.00052789,0.
 00140671,0.00051267,-0.00051126,0.00329578,-0.00264656,0.00756457,-0.1
 6808092,0.13505340,-0.25453166,0.00433768,-0.00346961,-0.01223301,-0.0
 0426099,0.00340982,-0.01003618,0.17459329,-0.14033505,0.21464475,0.000
 86504,0.01058013,0.00177897,0.00067010,-0.00017040,-0.00127276,-0.0010
 9630,-0.00157110,-0.00431464,0.00052042,-0.00045507,0.00022720,-0.0021
 5753,-0.00193403,-0.00273063,-0.28168105,0.18810320,0.16371467,-0.0011
 9382,0.00152029,0.00426099,0.00247027,-0.00106543,0.00433722,-0.083663
 67,0.08135201,0.00770178,0.36481953,0.01058843,0.00551313,-0.00139131,
 -0.00162646,-0.00101682,0.00395402,-0.00015840,-0.00031883,0.00049170,
 -0.00028572,0.00034430,-0.00072743,-0.00192463,-0.00302439,0.00217321,
 0.18814959,-0.19873014,-0.13160057,0.00152113,-0.00051162,-0.00340982,
 -0.00106543,0.00200168,-0.00347139,0.08134939,-0.04771289,-0.00620081,
 -0.27615802,0.24315577,0.01848823,-0.01486891,-0.00045575,0.00057578,0
 .00107031,-0.00035528,-0.00142221,-0.00050268,-0.00051243,-0.00010937,
 0.00002870,0.00052757,-0.00329480,0.00264407,0.00756577,0.16801323,-0.
 13503772,-0.25444436,0.00426008,-0.00340736,-0.01003618,-0.00433722,0.
 00347139,-0.01222914,-0.00772736,0.00622821,0.05488268,-0.17447689,0.1
 4028524,0.21455655,-0.01549598,0.00625936,0.,0.00275472,0.00099103,0.,
 -0.00264052,0.00636317,0.,0.00191387,-0.00363871,0.,-0.00056026,0.0012
 9772,0.00040702,-0.00056026,0.00129772,-0.00040702,0.00067631,-0.00163
 071,0.00058025,0.00044700,-0.00038988,-0.00003053,0.00067631,-0.001630
 71,-0.00058025,0.00044700,-0.00038988,0.00003053,0.01234182,0.00732074
 ,-0.06785576,0.,0.00099265,-0.00959761,0.,0.00374851,0.00014109,0.,-0.
 00225357,0.00148196,0.,-0.00026585,-0.00038344,0.00230546,-0.00026585,
 -0.00038344,-0.00230546,-0.00017218,-0.00101549,0.00107247,-0.00020159
 ,0.00029981,-0.00008875,-0.00017218,-0.00101549,-0.00107247,-0.0002015
 9,0.00029981,0.00008875,-0.00852909,0.07802857,0.,0.,-0.00974332,0.,0.
 ,0.00267359,0.,0.,0.00180334,0.,0.,0.00307903,0.00239564,0.00152391,-0
 .00421886,-0.00239564,-0.00152391,-0.00421886,-0.00126621,0.00394831,-
 0.00035141,-0.00077410,0.00010285,0.00050057,0.00126621,-0.00394831,-0
 .00035141,0.00077410,-0.00010285,0.00050057,0.,0.,0.01032677\\0.000038
 27,0.00000741,0.,-0.00021036,-0.00001933,0.,-0.00000801,-0.00023604,0.
 ,-0.00002130,0.00023897,0.,-0.00000682,-0.00000152,0.00004463,-0.00000
 682,-0.00000152,-0.00004463,0.00007180,0.00006761,-0.00000298,-0.00006
 265,-0.00007607,0.00000399,0.00007180,0.00006761,0.00000298,-0.0000626
 5,-0.00007607,-0.00000399,0.00019674,0.00002894,0.\\\@


 FIREWORKS ENDED
 AND SPECTATORS GONE AWAY....
 AH, HOW VAST AND DARK
                     SHIKI
 Job cpu time:       0 days  0 hours 18 minutes 57.2 seconds.
 File lengths (MBytes):  RWF=    148 Int=      0 D2E=      0 Chk=      9 Scr=      1
 Normal termination of Gaussian 09 at Wed Aug 18 03:10:17 2021.
