 Entering Gaussian System, Link 0=g09
 Input=18_D2O.com
 Output=18_D2O.log
 Initial command:
 /scr/programs/g09/l1.exe /scr/guest/Gau-24645.inp -scrdir=/scr/guest/
 Entering Link 1 = /scr/programs/g09/l1.exe PID=     24646.
  
 Copyright (c) 1988,1990,1992,1993,1995,1998,2003,2009, Gaussian, Inc.
                  All Rights Reserved.
  
 This is part of the Gaussian(R) 09 program.  It is based on
 the Gaussian(R) 03 system (copyright 2003, Gaussian, Inc.),
 the Gaussian(R) 98 system (copyright 1998, Gaussian, Inc.),
 the Gaussian(R) 94 system (copyright 1995, Gaussian, Inc.),
 the Gaussian 92(TM) system (copyright 1992, Gaussian, Inc.),
 the Gaussian 90(TM) system (copyright 1990, Gaussian, Inc.),
 the Gaussian 88(TM) system (copyright 1988, Gaussian, Inc.),
 the Gaussian 86(TM) system (copyright 1986, Carnegie Mellon
 University), and the Gaussian 82(TM) system (copyright 1983,
 Carnegie Mellon University). Gaussian is a federally registered
 trademark of Gaussian, Inc.
  
 This software contains proprietary and confidential information,
 including trade secrets, belonging to Gaussian, Inc.
  
 This software is provided under written license and may be
 used, copied, transmitted, or stored only in accord with that
 written license.
  
 The following legend is applicable only to US Government
 contracts under FAR:
  
                    RESTRICTED RIGHTS LEGEND
  
 Use, reproduction and disclosure by the US Government is
 subject to restrictions as set forth in subparagraphs (a)
 and (c) of the Commercial Computer Software - Restricted
 Rights clause in FAR 52.227-19.
  
 Gaussian, Inc.
 340 Quinnipiac St., Bldg. 40, Wallingford CT 06492
  
  
 ---------------------------------------------------------------
 Warning -- This program may not be used in any manner that
 competes with the business of Gaussian, Inc. or will provide
 assistance to any competitor of Gaussian, Inc.  The licensee
 of this program is prohibited from giving any competitor of
 Gaussian, Inc. access to this program.  By using this program,
 the user acknowledges that Gaussian, Inc. is engaged in the
 business of creating and licensing software in the field of
 computational chemistry and represents and warrants to the
 licensee that it is not a competitor of Gaussian, Inc. and that
 it will not use this program in any manner prohibited above.
 ---------------------------------------------------------------
  

 Cite this work as:
 Gaussian 09, Revision A.02,
 M. J. Frisch, G. W. Trucks, H. B. Schlegel, G. E. Scuseria, 
 M. A. Robb, J. R. Cheeseman, G. Scalmani, V. Barone, B. Mennucci, 
 G. A. Petersson, H. Nakatsuji, M. Caricato, X. Li, H. P. Hratchian, 
 A. F. Izmaylov, J. Bloino, G. Zheng, J. L. Sonnenberg, M. Hada, 
 M. Ehara, K. Toyota, R. Fukuda, J. Hasegawa, M. Ishida, T. Nakajima, 
 Y. Honda, O. Kitao, H. Nakai, T. Vreven, J. A. Montgomery, Jr., 
 J. E. Peralta, F. Ogliaro, M. Bearpark, J. J. Heyd, E. Brothers, 
 K. N. Kudin, V. N. Staroverov, R. Kobayashi, J. Normand, 
 K. Raghavachari, A. Rendell, J. C. Burant, S. S. Iyengar, J. Tomasi, 
 M. Cossi, N. Rega, J. M. Millam, M. Klene, J. E. Knox, J. B. Cross, 
 V. Bakken, C. Adamo, J. Jaramillo, R. Gomperts, R. E. Stratmann, 
 O. Yazyev, A. J. Austin, R. Cammi, C. Pomelli, J. W. Ochterski, 
 R. L. Martin, K. Morokuma, V. G. Zakrzewski, G. A. Voth, 
 P. Salvador, J. J. Dannenberg, S. Dapprich, A. D. Daniels, 
 O. Farkas, J. B. Foresman, J. V. Ortiz, J. Cioslowski, 
 and D. J. Fox, Gaussian, Inc., Wallingford CT, 2009.
 
 ******************************************
 Gaussian 09:  EM64L-G09RevA.02 11-Jun-2009
                 1-Dec-2021 
 ******************************************
 %mem=30gb
 %nproc=24
 Will use up to   24 processors via shared memory.
 -----------------------------------------------------------------
 #b3lyp/gen pseudo=read opt=(loose,cartesian) scrf=(solvent=water)
 -----------------------------------------------------------------
 1/7=-1,10=7,14=-1,18=10,26=3,38=1/1,3;
 2/12=2,17=6,18=5,29=2,40=1/2;
 3/5=7,11=2,16=1,17=8,25=1,30=1,70=2201,71=1,72=1,74=-5/1,2,3;
 4//1;
 5/5=2,38=5,53=1/2;
 6/7=2,8=2,9=2,10=2,28=1/1;
 7/7=1,29=1/1,2,3,16;
 1/7=-1,10=7,14=-1,18=10/3(2);
 2/29=1/2;
 99/12=1/99;
 2/29=1/2;
 3/5=7,6=1,11=2,16=1,17=8,25=1,30=1,70=2205,71=1,72=1,74=-5,82=7/1,2,3;
 4/5=5,16=3/1;
 5/5=2,38=5,53=1/2;
 7/7=1/1,2,3,16;
 1/7=-1,14=-1,18=10/3(-5);
 2/29=1/2;
 6/7=2,8=2,9=2,10=2,19=2,28=1/1;
 99/9=1,12=1/99;
 ------------
 Estrutura 18
 ------------
 Symbolic Z-matrix:
 Charge = -2 Multiplicity = 1
 Pt                    0.        0.       -0.23767 
 Br                    0.        0.        2.25058 
 Cl                    0.        0.       -2.58521 
 Cl                   -1.65863  -1.65863  -0.23946 
 Cl                    1.65863  -1.65863  -0.23946 
 Cl                    1.65863   1.65863  -0.23946 
 Cl                   -1.65863   1.65863  -0.23946 
 

 GradGradGradGradGradGradGradGradGradGradGradGradGradGradGradGradGradGrad
 Berny optimization.
 Initialization pass.
 No Z-matrix variables, so optimization will use Cartesian coordinates.
 Trust Radius=3.00D-01 FncErr=1.00D-07 GrdErr=1.00D-06
 Number of steps in this run=  31 maximum allowed number of steps= 100.
 GradGradGradGradGradGradGradGradGradGradGradGradGradGradGradGradGradGrad

 ---------------------------------------------------------------------------------------------------
                            Z-MATRIX (ANGSTROMS AND DEGREES)
   CD    Cent   Atom    N1       Length/X        N2       Alpha/Y        N3        Beta/Z          J
 ---------------------------------------------------------------------------------------------------
      1      1  Pt       0   0.000000          0.000000         -0.237668
      2      2  Br       0   0.000000          0.000000          2.250577
      3      3  Cl       0   0.000000          0.000000         -2.585209
      4      4  Cl       0  -1.658631         -1.658631         -0.239464
      5      5  Cl       0   1.658631         -1.658631         -0.239464
      6      6  Cl       0   1.658631          1.658631         -0.239464
      7      7  Cl       0  -1.658631          1.658631         -0.239464
 ---------------------------------------------------------------------------------------------------
                         Z-Matrix orientation:                         
 ---------------------------------------------------------------------
 Center     Atomic      Atomic             Coordinates (Angstroms)
 Number     Number       Type             X           Y           Z
 ---------------------------------------------------------------------
      1         78           0        0.000000    0.000000   -0.237668
      2         35           0        0.000000    0.000000    2.250577
      3         17           0        0.000000    0.000000   -2.585209
      4         17           0       -1.658631   -1.658631   -0.239464
      5         17           0        1.658631   -1.658631   -0.239464
      6         17           0        1.658631    1.658631   -0.239464
      7         17           0       -1.658631    1.658631   -0.239464
 ---------------------------------------------------------------------
                    Distance matrix (angstroms):
                    1          2          3          4          5
     1  Pt   0.000000
     2  Br   2.488245   0.000000
     3  Cl   2.347541   4.835786   0.000000
     4  Cl   2.345659   3.420880   3.317323   0.000000
     5  Cl   2.345659   3.420880   3.317323   3.317262   0.000000
     6  Cl   2.345659   3.420880   3.317323   4.691317   3.317262
     7  Cl   2.345659   3.420880   3.317323   3.317262   4.691317
                    6          7
     6  Cl   0.000000
     7  Cl   3.317262   0.000000
 Stoichiometry    BrCl5Pt(2-)
 Framework group  C4V[C4(BrPtCl),2SGV(Cl2)]
 Deg. of freedom     4
 Full point group                 C4V     NOp   8
 Largest Abelian subgroup         C2V     NOp   4
 Largest concise Abelian subgroup C2V     NOp   4
                         Standard orientation:                         
 ---------------------------------------------------------------------
 Center     Atomic      Atomic             Coordinates (Angstroms)
 Number     Number       Type             X           Y           Z
 ---------------------------------------------------------------------
      1         78           0        0.000000    0.000000    0.237668
      2         35           0        0.000000    0.000000   -2.250577
      3         17           0        0.000000    0.000000    2.585209
      4         17           0        0.000000    2.345658    0.239464
      5         17           0        2.345658    0.000000    0.239464
      6         17           0        0.000000   -2.345658    0.239464
      7         17           0       -2.345658    0.000000    0.239464
 ---------------------------------------------------------------------
 Rotational constants (GHZ):      0.6566686      0.4872747      0.4872747
 General basis read from cards:  (5D, 7F)
 ======================================================================================================
                                       Pseudopotential Parameters
 ======================================================================================================
  Center     Atomic      Valence      Angular      Power
  Number     Number     Electrons     Momentum     of R      Exponent        Coefficient   SO-Coeffient
 ======================================================================================================
    1         78           18
                                      G and up 
                                                     1      728.9394056       -0.16192680    0.00000000
                                                     2      320.6567800    -1320.28738520    0.00000000
                                                     2       52.8680174     -298.31781350    0.00000000
                                                     2       12.0280128      -87.58370650    0.00000000
                                                     2        3.5238913       -8.14932740    0.00000000
                                      S - G
                                                     0      409.4437358        2.73342180    0.00000000
                                                     1      274.5419231       59.70243290    0.00000000
                                                     2      127.5658570      891.45895500    0.00000000
                                                     2       32.9036631      368.44676560    0.00000000
                                                     2        5.0593880      238.02630900    0.00000000
                                                     2        4.1506556     -107.05564540    0.00000000
                                      P - G
                                                     0      466.1728892        1.88785680    0.00000000
                                                     1      120.7888259       76.01386290    0.00000000
                                                     2       36.4118791      343.55111160    0.00000000
                                                     2        5.6985408      119.49117860    0.00000000
                                      D - G
                                                     0      249.5650763        2.93436780    0.00000000
                                                     1      126.6678585       59.33065710    0.00000000
                                                     2       63.1430586      452.44451940    0.00000000
                                                     2       17.9059470      210.47694790    0.00000000
                                                     2        4.2239373       58.62541120    0.00000000
                                      F - G
                                                     0      121.8158799        3.95342530    0.00000000
                                                     1       60.8757030       53.85551820    0.00000000
                                                     2       31.4767147      247.43051330    0.00000000
                                                     2        9.8811751      127.81879760    0.00000000
                                                     2        2.7319874       15.37720460    0.00000000
    2         35
                                   No pseudopotential on this center.
    3         17
                                   No pseudopotential on this center.
    4         17
                                   No pseudopotential on this center.
    5         17
                                   No pseudopotential on this center.
    6         17
                                   No pseudopotential on this center.
    7         17
                                   No pseudopotential on this center.
 ======================================================================================================
 There are    60 symmetry adapted basis functions of A1  symmetry.
 There are    16 symmetry adapted basis functions of A2  symmetry.
 There are    34 symmetry adapted basis functions of B1  symmetry.
 There are    34 symmetry adapted basis functions of B2  symmetry.
 Integral buffers will be    131072 words long.
 Raffenetti 2 integral format.
 Two-electron integral symmetry is turned on.
   144 basis functions,   308 primitive gaussians,   154 cartesian basis functions
    70 alpha electrons       70 beta electrons
       nuclear repulsion energy      1346.3767557751 Hartrees.
 NAtoms=    7 NActive=    7 NUniq=    4 SFac= 2.30D+00 NAtFMM=   80 NAOKFM=F Big=F
 ------------------------------------------------------------------------------
 Polarizable Continuum Model (PCM)
 =================================
 Model                : PCM.
 Atomic radii         : UFF (Universal Force Field).
 Polarization charges : Total charges.
 Charge compensation  : None.
 Solution method      : Matrix inversion.
 Cavity type          : Scaled VdW (van der Waals Surface) (Alpha=1.100).
 Cavity algorithm     : GePol (No added spheres)
                        Default sphere list used, NSphG=    7.
                        Lebedev-Laikov grids with approx.  5.0 points / Ang**2.
                        Smoothing algorithm: Karplus/York (Gamma=1.0000).
                        Polarization charges: spherical gaussians, with
                                              point-specific exponents (IZeta= 3).
                        Self-potential: point-specific (ISelfS= 7).
                        Self-field    : sphere-specific E.n sum rule (ISelfD= 2).
 1st derivatives      : Analytical E(r).r(x)/FMM algorithm (CHGder, D1EAlg=3).
                        Cavity 1st derivative terms included.
 Solvent              : Water, Eps=  78.355300 Eps(inf)=   1.777849
 ------------------------------------------------------------------------------
 Spheres list:
 ISph  on   Nord    Re0     Alpha      Xe            Ye            Ze
    1  Pt      1    1.377   1.100      0.000000      0.000000      0.237668
    2  Br      2    2.095   1.100      0.000000      0.000000     -2.250577
    3  Cl      3    1.974   1.100      0.000000      0.000000      2.585209
    4  Cl      4    1.974   1.100      0.000000      2.345658      0.239464
    5  Cl      5    1.974   1.100      2.345658      0.000000      0.239464
    6  Cl      6    1.974   1.100      0.000000     -2.345658      0.239464
    7  Cl      7    1.974   1.100     -2.345658      0.000000      0.239464
 ------------------------------------------------------------------------------
 One-electron integrals computed using PRISM.
   8 Symmetry operations used in ECPInt.
 ECPInt:  NShTT=    1830 NPrTT=    9482 LenC2=    1699 LenP2D=    6249.
 LDataN:  DoStor=T MaxTD1= 6 Len=  172
 NBasis=   144 RedAO= T  NBF=    60    16    34    34
 NBsUse=   144 1.00D-06 NBFU=    60    16    34    34
 Defaulting to unpruned grid for atomic number  78.
 Harris functional with IExCor=  402 diagonalized for initial guess.
 ExpMin= 2.90D-02 ExpMax= 1.13D+05 ExpMxC= 1.70D+04 IAcc=3 IRadAn=         0 AccDes= 0.00D+00
 HarFok:  IExCor=  402 AccDes= 0.00D+00 IRadAn=         0 IDoV= 1
 ScaDFX=  1.000000  1.000000  1.000000  1.000000
 Defaulting to unpruned grid for atomic number  78.
 Defaulting to unpruned grid for atomic number  78.
 Defaulting to unpruned grid for atomic number  78.
 Defaulting to unpruned grid for atomic number  78.
 Defaulting to unpruned grid for atomic number  78.
 Defaulting to unpruned grid for atomic number  78.
 Defaulting to unpruned grid for atomic number  78.
 Defaulting to unpruned grid for atomic number  78.
 Defaulting to unpruned grid for atomic number  78.
 Defaulting to unpruned grid for atomic number  78.
 Defaulting to unpruned grid for atomic number  78.
 Defaulting to unpruned grid for atomic number  78.
 Defaulting to unpruned grid for atomic number  78.
 Defaulting to unpruned grid for atomic number  78.
 Defaulting to unpruned grid for atomic number  78.
 Defaulting to unpruned grid for atomic number  78.
 Defaulting to unpruned grid for atomic number  78.
 Defaulting to unpruned grid for atomic number  78.
 Defaulting to unpruned grid for atomic number  78.
 Defaulting to unpruned grid for atomic number  78.
 Defaulting to unpruned grid for atomic number  78.
 Defaulting to unpruned grid for atomic number  78.
 Defaulting to unpruned grid for atomic number  78.
 Defaulting to unpruned grid for atomic number  78.
 FoFCou: FMM=F IPFlag=           0 FMFlag=      100000 FMFlg1=           0
         NFxFlg=           0 DoJE=T BraDBF=F KetDBF=T FulRan=T
         Omega=  0.000000  0.000000  1.000000  0.000000  0.000000 ICntrl=     500 IOpCl=  0
         NMat0=    1 NMatS0=    1 NMatT0=    0 NMatD0=    1 NMtDS0=    0 NMtDT0=    0
         I1Cent=           4 NGrid=           0.
 Petite list used in FoFCou.
 Initial guess orbital symmetries:
       Occupied  (A1) (A1) (E) (E) (B2) (A1) (A1) (A1) (E) (E)
                 (A1) (E) (E) (B2) (A1) (A1) (E) (E) (B2) (A1)
                 (A1) (A1) (A2) (E) (E) (E) (E) (B2) (B1) (E) (E)
                 (A1) (E) (E) (A1) (E) (E) (B1) (B2) (A1) (E) (E)
                 (A1) (A1) (B2) (A1) (E) (E) (A1) (A1) (B1) (E)
                 (E) (B2) (A1) (A1) (E) (E) (B2) (E) (E) (A2) (E)
                 (E) (E) (E) (A1) (A1) (E) (E)
       Virtual   (E) (E) (B1) (A1) (A1) (B2) (E) (E) (A1) (A1)
                 (B2) (B1) (A1) (B2) (E) (E) (A1) (A1) (E) (E)
                 (E) (E) (A1) (B2) (E) (E) (E) (E) (A2) (E) (E)
                 (B1) (B2) (A1) (E) (E) (B1) (B2) (A2) (B1) (E)
                 (E) (A1) (E) (E) (A1) (B2) (B1) (E) (E) (B2) (E)
                 (E) (A2) (A1) (E) (E) (A1) (B2) (E) (E) (B1) (A1)
                 (E) (E) (A1) (A1) (B2) (B1) (B2) (E) (E) (A1)
                 (A1)
 The electronic state of the initial guess is 1-A1.
 Requested convergence on RMS density matrix=1.00D-08 within 128 cycles.
 Requested convergence on MAX density matrix=1.00D-06.
 Requested convergence on             energy=1.00D-06.
 No special actions if energy rises.
 Keep R1 ints in memory in canonical form, NReq=76302180.
 Defaulting to unpruned grid for atomic number  78.
 Defaulting to unpruned grid for atomic number  78.
 Defaulting to unpruned grid for atomic number  78.
 Defaulting to unpruned grid for atomic number  78.
 Defaulting to unpruned grid for atomic number  78.
 Defaulting to unpruned grid for atomic number  78.
 Defaulting to unpruned grid for atomic number  78.
 Defaulting to unpruned grid for atomic number  78.
 Defaulting to unpruned grid for atomic number  78.
 Defaulting to unpruned grid for atomic number  78.
 Defaulting to unpruned grid for atomic number  78.
 Defaulting to unpruned grid for atomic number  78.
 Defaulting to unpruned grid for atomic number  78.
 Defaulting to unpruned grid for atomic number  78.
 Defaulting to unpruned grid for atomic number  78.
 Defaulting to unpruned grid for atomic number  78.
 Defaulting to unpruned grid for atomic number  78.
 Defaulting to unpruned grid for atomic number  78.
 Defaulting to unpruned grid for atomic number  78.
 Defaulting to unpruned grid for atomic number  78.
 Defaulting to unpruned grid for atomic number  78.
 Defaulting to unpruned grid for atomic number  78.
 Defaulting to unpruned grid for atomic number  78.
 Defaulting to unpruned grid for atomic number  78.
 EnCoef did   100 forward-backward iterations
 Error on total polarization charges =  0.01639
 SCF Done:  E(RB3LYP) =  -4993.86999966     A.U. after   14 cycles
             Convg  =    0.5267D-08             -V/T =  2.0183

 **********************************************************************

            Population analysis using the SCF density.

 **********************************************************************

 Orbital symmetries:
       Occupied  (A1) (A1) (A1) (E) (E) (B2) (A1) (A1) (E) (E)
                 (A1) (E) (E) (A1) (B2) (A1) (A1) (E) (E) (B2)
                 (A1) (E) (E) (A1) (A2) (E) (E) (B2) (E) (E) (B1)
                 (A1) (E) (E) (A1) (A1) (E) (E) (B1) (B2) (E) (E)
                 (A1) (A1) (A1) (B2) (E) (E) (A1) (B2) (A1) (A1)
                 (B1) (E) (E) (E) (E) (A1) (B2) (E) (E) (E) (E)
                 (A1) (B1) (E) (E) (A2) (E) (E)
       Virtual   (A1) (B2) (A1) (E) (E) (A1) (A1) (E) (E) (E) (E)
                 (B1) (A1) (A1) (B2) (A1) (B1) (B2) (E) (E) (B2)
                 (A1) (A1) (E) (E) (E) (E) (A1) (E) (E) (A2) (E)
                 (E) (B2) (B2) (A1) (E) (E) (B1) (E) (E) (B2) (B1)
                 (A2) (A1) (B1) (E) (E) (E) (E) (B2) (E) (E) (A1)
                 (A2) (B2) (E) (E) (A1) (A1) (E) (E) (B1) (A1)
                 (E) (E) (A1) (B2) (B1) (B2) (E) (E) (A1) (A1)
 The electronic state is 1-A1.
 Alpha  occ. eigenvalues -- -482.75549-101.46915-101.46467-101.46461-101.46461
 Alpha  occ. eigenvalues -- -101.46453 -62.43682 -56.26893 -56.26573 -56.26573
 Alpha  occ. eigenvalues --   -9.42205  -9.41724  -9.41724  -9.41724  -9.41718
 Alpha  occ. eigenvalues --   -8.65421  -7.18968  -7.18529  -7.18529  -7.18528
 Alpha  occ. eigenvalues --   -7.18527  -7.18193  -7.18193  -7.17693  -7.17692
 Alpha  occ. eigenvalues --   -7.17692  -7.17692  -7.17691  -7.17691  -7.17691
 Alpha  occ. eigenvalues --   -7.17690  -6.48659  -6.47525  -6.47525  -4.02721
 Alpha  occ. eigenvalues --   -2.60093  -2.59778  -2.59778  -2.58887  -2.58887
 Alpha  occ. eigenvalues --   -2.23887  -2.23887  -2.23738  -0.79462  -0.77101
 Alpha  occ. eigenvalues --   -0.76764  -0.76435  -0.76435  -0.72754  -0.42563
 Alpha  occ. eigenvalues --   -0.42194  -0.41295  -0.40921  -0.40693  -0.40693
 Alpha  occ. eigenvalues --   -0.34024  -0.34024  -0.33750  -0.28611  -0.28505
 Alpha  occ. eigenvalues --   -0.28505  -0.28232  -0.28232  -0.27618  -0.26592
 Alpha  occ. eigenvalues --   -0.26575  -0.26575  -0.26321  -0.25159  -0.25159
 Alpha virt. eigenvalues --   -0.11266  -0.10829   0.04622   0.04909   0.04909
 Alpha virt. eigenvalues --    0.09330   0.22797   0.23088   0.23088   0.34779
 Alpha virt. eigenvalues --    0.34779   0.35798   0.41741   0.49160   0.50689
 Alpha virt. eigenvalues --    0.57008   0.57271   0.59050   0.60418   0.60418
 Alpha virt. eigenvalues --    0.62626   0.65314   0.66161   0.68440   0.68440
 Alpha virt. eigenvalues --    0.70433   0.70433   0.76493   0.77509   0.77509
 Alpha virt. eigenvalues --    0.78405   0.78441   0.78441   0.79021   0.79439
 Alpha virt. eigenvalues --    0.79841   0.80214   0.80214   0.80416   0.81167
 Alpha virt. eigenvalues --    0.81167   0.81214   0.81252   0.81349   0.82134
 Alpha virt. eigenvalues --    0.82842   0.83063   0.83063   0.89950   0.89950
 Alpha virt. eigenvalues --    0.94300   1.01456   1.01456   1.02367   1.05275
 Alpha virt. eigenvalues --    1.09508   1.09672   1.09672   1.11234   1.17292
 Alpha virt. eigenvalues --    1.19577   1.19577   1.23013   1.35270   1.41947
 Alpha virt. eigenvalues --    1.41947   1.49302   1.52019   3.44750   3.46567
 Alpha virt. eigenvalues --    3.54749   3.54749   3.67934   6.01365
          Condensed to atoms (all electrons):
              1          2          3          4          5          6
     1  Pt  17.303939   0.206504   0.203922   0.225228   0.225228   0.225228
     2  Br   0.206504  35.011854  -0.002113  -0.015403  -0.015403  -0.015403
     3  Cl   0.203922  -0.002113  17.124133  -0.016163  -0.016163  -0.016163
     4  Cl   0.225228  -0.015403  -0.016163  17.077197  -0.013748  -0.001162
     5  Cl   0.225228  -0.015403  -0.016163  -0.013748  17.077197  -0.013748
     6  Cl   0.225228  -0.015403  -0.016163  -0.001162  -0.013748  17.077197
     7  Cl   0.225228  -0.015403  -0.016163  -0.013748  -0.001162  -0.013748
              7
     1  Pt   0.225228
     2  Br  -0.015403
     3  Cl  -0.016163
     4  Cl  -0.013748
     5  Cl  -0.001162
     6  Cl  -0.013748
     7  Cl  17.077197
 Mulliken atomic charges:
              1
     1  Pt  -0.615276
     2  Br  -0.154633
     3  Cl  -0.261289
     4  Cl  -0.242201
     5  Cl  -0.242201
     6  Cl  -0.242201
     7  Cl  -0.242201
 Sum of Mulliken atomic charges =  -2.00000
 Mulliken charges with hydrogens summed into heavy atoms:
              1
     1  Pt  -0.615276
     2  Br  -0.154633
     3  Cl  -0.261289
     4  Cl  -0.242201
     5  Cl  -0.242201
     6  Cl  -0.242201
     7  Cl  -0.242201
 Sum of Mulliken charges with hydrogens summed into heavy atoms =  -2.00000
 Electronic spatial extent (au):  <R**2>=           2683.4802
 Charge=             -2.0000 electrons
 Dipole moment (field-independent basis, Debye):
    X=              0.0000    Y=              0.0000    Z=             -3.5088  Tot=              3.5088
 Quadrupole moment (field-independent basis, Debye-Ang):
   XX=           -130.0848   YY=           -130.0848   ZZ=           -131.2752
   XY=              0.0000   XZ=              0.0000   YZ=              0.0000
 Traceless Quadrupole moment (field-independent basis, Debye-Ang):
   XX=              0.3968   YY=              0.3968   ZZ=             -0.7936
   XY=              0.0000   XZ=              0.0000   YZ=              0.0000
 Octapole moment (field-independent basis, Debye-Ang**2):
  XXX=              0.0000  YYY=              0.0000  ZZZ=            -49.5511  XYY=              0.0000
  XXY=              0.0000  XXZ=            -15.5625  XZZ=              0.0000  YZZ=              0.0000
  YYZ=            -15.5625  XYZ=              0.0000
 Hexadecapole moment (field-independent basis, Debye-Ang**3):
 XXXX=          -1073.8331 YYYY=          -1073.8331 ZZZZ=          -1341.4546 XXXY=              0.0000
 XXXZ=              0.0000 YYYX=              0.0000 YYYZ=              0.0000 ZZZX=              0.0000
 ZZZY=              0.0000 XXYY=           -344.7661 XXZZ=           -392.4563 YYZZ=           -392.4563
 XXYZ=              0.0000 YYXZ=              0.0000 ZZXY=              0.0000
 N-N= 1.346376755775D+03 E-N=-1.460888326542D+04  KE= 4.904257721156D+03
 Symmetry A1   KE= 3.069237834302D+03
 Symmetry A2   KE= 1.390742073621D+02
 Symmetry B1   KE= 8.479728397455D+02
 Symmetry B2   KE= 8.479728397455D+02
   8 Symmetry operations used in ECPInt.
 ECPInt:  NShTT=    1830 NPrTT=    9482 LenC2=    1699 LenP2D=    6249.
 LDataN:  DoStor=T MaxTD1= 7 Len=  274
 D1PCM: PCM CHGder 1st derivatives, ID1Alg=3 FixD1E=F DoIter=F DoCFld=F I1PDM=0.
 Calling FoFJK, ICntrl=      2127 FMM=F ISym2X=1 I1Cent= 0 IOpClX= 0 NMat=1 NMatS=1 NMatT=0.
 Defaulting to unpruned grid for atomic number  78.
 Defaulting to unpruned grid for atomic number  78.
 Defaulting to unpruned grid for atomic number  78.
 Defaulting to unpruned grid for atomic number  78.
 Defaulting to unpruned grid for atomic number  78.
 Defaulting to unpruned grid for atomic number  78.
 Defaulting to unpruned grid for atomic number  78.
 Defaulting to unpruned grid for atomic number  78.
 Defaulting to unpruned grid for atomic number  78.
 Defaulting to unpruned grid for atomic number  78.
 Defaulting to unpruned grid for atomic number  78.
 Defaulting to unpruned grid for atomic number  78.
 Defaulting to unpruned grid for atomic number  78.
 Defaulting to unpruned grid for atomic number  78.
 Defaulting to unpruned grid for atomic number  78.
 Defaulting to unpruned grid for atomic number  78.
 Defaulting to unpruned grid for atomic number  78.
 Defaulting to unpruned grid for atomic number  78.
 Defaulting to unpruned grid for atomic number  78.
 Defaulting to unpruned grid for atomic number  78.
 Defaulting to unpruned grid for atomic number  78.
 Defaulting to unpruned grid for atomic number  78.
 Defaulting to unpruned grid for atomic number  78.
 Defaulting to unpruned grid for atomic number  78.
 ***** Axes restored to original set *****
 -------------------------------------------------------------------
 Center     Atomic                   Forces (Hartrees/Bohr)
 Number     Number              X              Y              Z
 -------------------------------------------------------------------
      1       78           0.000000000    0.000000000    0.014909287
      2       35           0.000000000    0.000000000    0.005142908
      3       17           0.000000000    0.000000000   -1.823409236
      4       17          -0.635273701   -0.635273701    0.450839260
      5       17           0.635273701   -0.635273701    0.450839260
      6       17           0.635273701    0.635273701    0.450839260
      7       17          -0.635273701    0.635273701    0.450839260
 -------------------------------------------------------------------
 Cartesian Forces:  Max     1.823409236 RMS     0.592278712

 GradGradGradGradGradGradGradGradGradGradGradGradGradGradGradGradGradGrad
 Berny optimization.
 Search for a local minimum.
 Step number   1 out of a maximum of   31
 All quantities printed in internal units (Hartrees-Bohrs-Radians)
 Second derivative matrix not updated -- first step.
     Eigenvalues ---    0.04659   0.04659   0.05084   0.05084   0.05089
     Eigenvalues ---    0.05089   0.08950   0.08950   0.08969   0.17262
     Eigenvalues ---    0.18350   0.18350   0.68794   0.70795   0.70795
 RFO step:  Lambda=-2.63230951D+00 EMin= 4.65907243D-02
 ClnCor:  largest displacement from symmetrization is 7.34D-14 for atom     7.
 Linear search not attempted -- first point.
 Maximum step size (   0.300) exceeded in Quadratic search.
    -- Step size scaled by   0.309
 ClnCor:  largest displacement from symmetrization is 5.55D-17 for atom     1.
 TrRot=  0.000000  0.000000 -0.000016  0.000000  0.000000  0.000000
 Variable       Old X    -DE/DX   Delta X   Delta X   Delta X     New X
                                 (Linear)    (Quad)   (Total)
    X1        0.00000   0.00000   0.00000   0.00000   0.00000   0.00000
    Y1        0.00000   0.00000   0.00000   0.00000   0.00000   0.00000
    Z1       -0.44913   0.01491   0.00000  -0.00673  -0.00675  -0.45588
    X2        0.00000   0.00000   0.00000   0.00000   0.00000   0.00000
    Y2        0.00000   0.00000   0.00000   0.00000   0.00000   0.00000
    Z2        4.25297   0.00514   0.00000   0.00019   0.00017   4.25314
    X3        0.00000   0.00000   0.00000   0.00000   0.00000   0.00000
    Y3        0.00000   0.00000   0.00000   0.00000   0.00000   0.00000
    Z3       -4.88534  -1.82341   0.00000  -0.20070  -0.20071  -5.08605
    X4       -3.13436  -0.63527   0.00000  -0.06975  -0.06975  -3.20411
    Y4       -3.13436  -0.63527   0.00000  -0.06975  -0.06975  -3.20411
    Z4       -0.45252   0.45084   0.00000   0.05184   0.05182  -0.40070
    X5        3.13436   0.63527   0.00000   0.06975   0.06975   3.20411
    Y5       -3.13436  -0.63527   0.00000  -0.06975  -0.06975  -3.20411
    Z5       -0.45252   0.45084   0.00000   0.05184   0.05182  -0.40070
    X6        3.13436   0.63527   0.00000   0.06975   0.06975   3.20411
    Y6        3.13436   0.63527   0.00000   0.06975   0.06975   3.20411
    Z6       -0.45252   0.45084   0.00000   0.05184   0.05182  -0.40070
    X7       -3.13436  -0.63527   0.00000  -0.06975  -0.06975  -3.20411
    Y7        3.13436   0.63527   0.00000   0.06975   0.06975   3.20411
    Z7       -0.45252   0.45084   0.00000   0.05184   0.05182  -0.40070
         Item               Value     Threshold  Converged?
 Maximum Force            1.823409     0.002500     NO 
 RMS     Force            0.592279     0.001667     NO 
 Maximum Displacement     0.200714     0.010000     NO 
 RMS     Displacement     0.065465     0.006667     NO 
 Predicted change in Energy=-8.064894D-01
 GradGradGradGradGradGradGradGradGradGradGradGradGradGradGradGradGradGrad

                          Input orientation:                          
 ---------------------------------------------------------------------
 Center     Atomic      Atomic             Coordinates (Angstroms)
 Number     Number       Type             X           Y           Z
 ---------------------------------------------------------------------
      1         78           0        0.000000    0.000000   -0.241240
      2         35           0        0.000000    0.000000    2.250667
      3         17           0        0.000000    0.000000   -2.691423
      4         17           0       -1.695543   -1.695543   -0.212040
      5         17           0        1.695543   -1.695543   -0.212040
      6         17           0        1.695543    1.695543   -0.212040
      7         17           0       -1.695543    1.695543   -0.212040
 ---------------------------------------------------------------------
                    Distance matrix (angstroms):
                    1          2          3          4          5
     1  Pt   0.000000
     2  Br   2.491907   0.000000
     3  Cl   2.450183   4.942090   0.000000
     4  Cl   2.398038   3.437247   3.449213   0.000000
     5  Cl   2.398038   3.437247   3.449213   3.391087   0.000000
     6  Cl   2.398038   3.437247   3.449213   4.795721   3.391087
     7  Cl   2.398038   3.437247   3.449213   3.391087   4.795721
                    6          7
     6  Cl   0.000000
     7  Cl   3.391087   0.000000
 Stoichiometry    BrCl5Pt(2-)
 Framework group  C4V[C4(BrPtCl),2SGV(Cl2)]
 Deg. of freedom     4
 Full point group                 C4V     NOp   8
 Largest Abelian subgroup         C2V     NOp   4
 Largest concise Abelian subgroup C2V     NOp   4
                         Standard orientation:                         
 ---------------------------------------------------------------------
 Center     Atomic      Atomic             Coordinates (Angstroms)
 Number     Number       Type             X           Y           Z
 ---------------------------------------------------------------------
      1         78           0        0.000000    0.000000    0.240147
      2         35           0        0.000000    0.000000   -2.251759
      3         17           0        0.000000    0.000000    2.690330
      4         17           0        0.000000    2.397861    0.210948
      5         17           0        2.397861    0.000000    0.210948
      6         17           0        0.000000   -2.397861    0.210948
      7         17           0       -2.397861    0.000000    0.210948
 ---------------------------------------------------------------------
 Rotational constants (GHZ):      0.6283881      0.4711183      0.4711183
 Basis read from rwf:  (5D, 7F)
 Pseudo-potential data read from rwf file.
 There are    60 symmetry adapted basis functions of A1  symmetry.
 There are    16 symmetry adapted basis functions of A2  symmetry.
 There are    34 symmetry adapted basis functions of B1  symmetry.
 There are    34 symmetry adapted basis functions of B2  symmetry.
 Integral buffers will be    131072 words long.
 Raffenetti 2 integral format.
 Two-electron integral symmetry is turned on.
   144 basis functions,   308 primitive gaussians,   154 cartesian basis functions
    70 alpha electrons       70 beta electrons
       nuclear repulsion energy      1321.6200816401 Hartrees.
 NAtoms=    7 NActive=    7 NUniq=    4 SFac= 2.30D+00 NAtFMM=   80 NAOKFM=F Big=F
 ------------------------------------------------------------------------------
 Polarizable Continuum Model (PCM)
 =================================
 Model                : PCM.
 Atomic radii         : UFF (Universal Force Field).
 Polarization charges : Total charges.
 Charge compensation  : None.
 Solution method      : Matrix inversion.
 Cavity type          : Scaled VdW (van der Waals Surface) (Alpha=1.100).
 Cavity algorithm     : GePol (No added spheres)
                        Default sphere list used, NSphG=    7.
                        Lebedev-Laikov grids with approx.  5.0 points / Ang**2.
                        Smoothing algorithm: Karplus/York (Gamma=1.0000).
                        Polarization charges: spherical gaussians, with
                                              point-specific exponents (IZeta= 3).
                        Self-potential: point-specific (ISelfS= 7).
                        Self-field    : sphere-specific E.n sum rule (ISelfD= 2).
 1st derivatives      : Analytical E(r).r(x)/FMM algorithm (CHGder, D1EAlg=3).
                        Cavity 1st derivative terms included.
 Solvent              : Water, Eps=  78.355300 Eps(inf)=   1.777849
 ------------------------------------------------------------------------------
 Spheres list:
 ISph  on   Nord    Re0     Alpha      Xe            Ye            Ze
    1  Pt      1    1.377   1.100      0.000000      0.000000      0.240147
    2  Br      2    2.095   1.100      0.000000      0.000000     -2.251759
    3  Cl      3    1.974   1.100      0.000000      0.000000      2.690330
    4  Cl      4    1.974   1.100      0.000000      2.397861      0.210948
    5  Cl      5    1.974   1.100      2.397861      0.000000      0.210948
    6  Cl      6    1.974   1.100      0.000000     -2.397861      0.210948
    7  Cl      7    1.974   1.100     -2.397861      0.000000      0.210948
 ------------------------------------------------------------------------------
 One-electron integrals computed using PRISM.
   8 Symmetry operations used in ECPInt.
 ECPInt:  NShTT=    1830 NPrTT=    9482 LenC2=    1693 LenP2D=    6226.
 LDataN:  DoStor=T MaxTD1= 6 Len=  172
 NBasis=   144 RedAO= T  NBF=    60    16    34    34
 NBsUse=   144 1.00D-06 NBFU=    60    16    34    34
 Defaulting to unpruned grid for atomic number  78.
 Initial guess read from the read-write file.
 B after Tr=     0.000000    0.000000    0.000000
         Rot=    1.000000    0.000000    0.000000    0.000000 Ang=   0.00 deg.
 Initial guess orbital symmetries:
       Occupied  (A1) (A1) (A1) (E) (E) (B2) (A1) (A1) (E) (E)
                 (A1) (E) (E) (A1) (B2) (A1) (A1) (E) (E) (B2)
                 (A1) (E) (E) (A1) (A2) (E) (E) (B2) (E) (E) (B1)
                 (A1) (E) (E) (A1) (A1) (E) (E) (B1) (B2) (E) (E)
                 (A1) (A1) (A1) (B2) (E) (E) (A1) (B2) (A1) (A1)
                 (B1) (E) (E) (E) (E) (A1) (B2) (E) (E) (E) (E)
                 (A1) (B1) (E) (E) (A2) (E) (E)
       Virtual   (A1) (B2) (A1) (E) (E) (A1) (A1) (E) (E) (E) (E)
                 (B1) (A1) (A1) (B2) (A1) (B1) (B2) (E) (E) (B2)
                 (A1) (A1) (E) (E) (E) (E) (A1) (E) (E) (A2) (E)
                 (E) (B2) (B2) (A1) (E) (E) (B1) (E) (E) (B2) (B1)
                 (A2) (A1) (B1) (E) (E) (E) (E) (B2) (E) (E) (A1)
                 (A2) (B2) (E) (E) (A1) (A1) (E) (E) (B1) (A1)
                 (E) (E) (A1) (B2) (B1) (B2) (E) (E) (A1) (A1)
 Harris functional with IExCor=  402 diagonalized for initial guess.
 ExpMin= 2.90D-02 ExpMax= 1.13D+05 ExpMxC= 1.70D+04 IAcc=3 IRadAn=         0 AccDes= 0.00D+00
 HarFok:  IExCor=  402 AccDes= 0.00D+00 IRadAn=         0 IDoV= 1
 ScaDFX=  1.000000  1.000000  1.000000  1.000000
 Defaulting to unpruned grid for atomic number  78.
 Defaulting to unpruned grid for atomic number  78.
 Defaulting to unpruned grid for atomic number  78.
 Defaulting to unpruned grid for atomic number  78.
 Defaulting to unpruned grid for atomic number  78.
 Defaulting to unpruned grid for atomic number  78.
 Defaulting to unpruned grid for atomic number  78.
 Defaulting to unpruned grid for atomic number  78.
 Defaulting to unpruned grid for atomic number  78.
 Defaulting to unpruned grid for atomic number  78.
 Defaulting to unpruned grid for atomic number  78.
 Defaulting to unpruned grid for atomic number  78.
 Defaulting to unpruned grid for atomic number  78.
 Defaulting to unpruned grid for atomic number  78.
 Defaulting to unpruned grid for atomic number  78.
 Defaulting to unpruned grid for atomic number  78.
 Defaulting to unpruned grid for atomic number  78.
 Defaulting to unpruned grid for atomic number  78.
 Defaulting to unpruned grid for atomic number  78.
 Defaulting to unpruned grid for atomic number  78.
 Defaulting to unpruned grid for atomic number  78.
 Defaulting to unpruned grid for atomic number  78.
 Defaulting to unpruned grid for atomic number  78.
 Defaulting to unpruned grid for atomic number  78.
 FoFCou: FMM=F IPFlag=           0 FMFlag=      100000 FMFlg1=           0
         NFxFlg=           0 DoJE=T BraDBF=F KetDBF=T FulRan=T
         Omega=  0.000000  0.000000  1.000000  0.000000  0.000000 ICntrl=     500 IOpCl=  0
         NMat0=    1 NMatS0=    1 NMatT0=    0 NMatD0=    1 NMtDS0=    0 NMtDT0=    0
         I1Cent=           4 NGrid=           0.
 Petite list used in FoFCou.
 Requested convergence on RMS density matrix=1.00D-08 within 128 cycles.
 Requested convergence on MAX density matrix=1.00D-06.
 Requested convergence on             energy=1.00D-06.
 No special actions if energy rises.
 Keep R1 ints in memory in canonical form, NReq=76376382.
 Defaulting to unpruned grid for atomic number  78.
 Defaulting to unpruned grid for atomic number  78.
 Defaulting to unpruned grid for atomic number  78.
 Defaulting to unpruned grid for atomic number  78.
 Defaulting to unpruned grid for atomic number  78.
 Defaulting to unpruned grid for atomic number  78.
 Defaulting to unpruned grid for atomic number  78.
 Defaulting to unpruned grid for atomic number  78.
 Defaulting to unpruned grid for atomic number  78.
 Defaulting to unpruned grid for atomic number  78.
 Defaulting to unpruned grid for atomic number  78.
 Defaulting to unpruned grid for atomic number  78.
 Defaulting to unpruned grid for atomic number  78.
 Defaulting to unpruned grid for atomic number  78.
 Defaulting to unpruned grid for atomic number  78.
 Defaulting to unpruned grid for atomic number  78.
 Defaulting to unpruned grid for atomic number  78.
 Defaulting to unpruned grid for atomic number  78.
 Defaulting to unpruned grid for atomic number  78.
 Defaulting to unpruned grid for atomic number  78.
 Defaulting to unpruned grid for atomic number  78.
 Defaulting to unpruned grid for atomic number  78.
 Defaulting to unpruned grid for atomic number  78.
 Defaulting to unpruned grid for atomic number  78.
 Error on total polarization charges =  0.01668
 SCF Done:  E(RB3LYP) =  -4993.86045130     A.U. after   11 cycles
             Convg  =    0.1535D-08             -V/T =  2.0183
   8 Symmetry operations used in ECPInt.
 ECPInt:  NShTT=    1830 NPrTT=    9482 LenC2=    1693 LenP2D=    6226.
 LDataN:  DoStor=T MaxTD1= 7 Len=  274
 D1PCM: PCM CHGder 1st derivatives, ID1Alg=3 FixD1E=F DoIter=F DoCFld=F I1PDM=0.
 Calling FoFJK, ICntrl=      2127 FMM=F ISym2X=1 I1Cent= 0 IOpClX= 0 NMat=1 NMatS=1 NMatT=0.
 Defaulting to unpruned grid for atomic number  78.
 Defaulting to unpruned grid for atomic number  78.
 Defaulting to unpruned grid for atomic number  78.
 Defaulting to unpruned grid for atomic number  78.
 Defaulting to unpruned grid for atomic number  78.
 Defaulting to unpruned grid for atomic number  78.
 Defaulting to unpruned grid for atomic number  78.
 Defaulting to unpruned grid for atomic number  78.
 Defaulting to unpruned grid for atomic number  78.
 Defaulting to unpruned grid for atomic number  78.
 Defaulting to unpruned grid for atomic number  78.
 Defaulting to unpruned grid for atomic number  78.
 Defaulting to unpruned grid for atomic number  78.
 Defaulting to unpruned grid for atomic number  78.
 Defaulting to unpruned grid for atomic number  78.
 Defaulting to unpruned grid for atomic number  78.
 Defaulting to unpruned grid for atomic number  78.
 Defaulting to unpruned grid for atomic number  78.
 Defaulting to unpruned grid for atomic number  78.
 Defaulting to unpruned grid for atomic number  78.
 Defaulting to unpruned grid for atomic number  78.
 Defaulting to unpruned grid for atomic number  78.
 Defaulting to unpruned grid for atomic number  78.
 Defaulting to unpruned grid for atomic number  78.
 ***** Axes restored to original set *****
 -------------------------------------------------------------------
 Center     Atomic                   Forces (Hartrees/Bohr)
 Number     Number              X              Y              Z
 -------------------------------------------------------------------
      1       78           0.000000000    0.000000000   -0.008824409
      2       35           0.000000000    0.000000000    0.010703196
      3       17           0.000000000    0.000000000    0.002085084
      4       17          -0.002674614   -0.002674614   -0.000990968
      5       17           0.002674614   -0.002674614   -0.000990968
      6       17           0.002674614    0.002674614   -0.000990968
      7       17          -0.002674614    0.002674614   -0.000990968
 -------------------------------------------------------------------
 Cartesian Forces:  Max     0.010703196 RMS     0.003504641

 GradGradGradGradGradGradGradGradGradGradGradGradGradGradGradGradGradGrad
 Berny optimization.
 Search for a local minimum.
 Step number   2 out of a maximum of   31
 All quantities printed in internal units (Hartrees-Bohrs-Radians)
 Update second derivatives using D2CorN and points    2    1
 DE=  9.55D-03 DEPred=-8.06D-01 R=-1.18D-02
 Trust test=-1.18D-02 RLast= 3.00D-01 DXMaxT set to 1.50D-01
 Energy Rises -- skip Quadratic search.
 Quartic linear search produced a step of -0.67449.
 ClnCor:  largest displacement from symmetrization is 4.44D-16 for atom     4.
 TrRot=  0.000000  0.000000  0.000000  0.000000  0.000000  0.000000
 Variable       Old X    -DE/DX   Delta X   Delta X   Delta X     New X
                                 (Linear)    (Quad)   (Total)
    X1        0.00000   0.00000   0.00000   0.00000   0.00000   0.00000
    Y1        0.00000   0.00000   0.00000   0.00000   0.00000   0.00000
    Z1       -0.45588  -0.00882   0.00455   0.00000   0.00455  -0.45132
    X2        0.00000   0.00000   0.00000   0.00000   0.00000   0.00000
    Y2        0.00000   0.00000   0.00000   0.00000   0.00000   0.00000
    Z2        4.25314   0.01070  -0.00012   0.00000  -0.00012   4.25303
    X3        0.00000   0.00000   0.00000   0.00000   0.00000   0.00000
    Y3        0.00000   0.00000   0.00000   0.00000   0.00000   0.00000
    Z3       -5.08605   0.00209   0.13538   0.00000   0.13538  -4.95067
    X4       -3.20411  -0.00267   0.04705   0.00000   0.04705  -3.15706
    Y4       -3.20411  -0.00267   0.04705   0.00000   0.04705  -3.15706
    Z4       -0.40070  -0.00099  -0.03495   0.00000  -0.03495  -0.43565
    X5        3.20411   0.00267  -0.04705   0.00000  -0.04705   3.15706
    Y5       -3.20411  -0.00267   0.04705   0.00000   0.04705  -3.15706
    Z5       -0.40070  -0.00099  -0.03495   0.00000  -0.03495  -0.43565
    X6        3.20411   0.00267  -0.04705   0.00000  -0.04705   3.15706
    Y6        3.20411   0.00267  -0.04705   0.00000  -0.04705   3.15706
    Z6       -0.40070  -0.00099  -0.03495   0.00000  -0.03495  -0.43565
    X7       -3.20411  -0.00267   0.04705   0.00000   0.04705  -3.15706
    Y7        3.20411   0.00267  -0.04705   0.00000  -0.04705   3.15706
    Z7       -0.40070  -0.00099  -0.03495   0.00000  -0.03495  -0.43565
         Item               Value     Threshold  Converged?
 Maximum Force            0.010703     0.002500     NO 
 RMS     Force            0.003505     0.001667     NO 
 Maximum Displacement     0.135380     0.010000     NO 
 RMS     Displacement     0.044156     0.006667     NO 
 Predicted change in Energy=-1.950899D-01
 GradGradGradGradGradGradGradGradGradGradGradGradGradGradGradGradGradGrad

                          Input orientation:                          
 ---------------------------------------------------------------------
 Center     Atomic      Atomic             Coordinates (Angstroms)
 Number     Number       Type             X           Y           Z
 ---------------------------------------------------------------------
      1         78           0        0.000000    0.000000   -0.238831
      2         35           0        0.000000    0.000000    2.250606
      3         17           0        0.000000    0.000000   -2.619782
      4         17           0       -1.670646   -1.670646   -0.230537
      5         17           0        1.670646   -1.670646   -0.230537
      6         17           0        1.670646    1.670646   -0.230537
      7         17           0       -1.670646    1.670646   -0.230537
 ---------------------------------------------------------------------
                    Distance matrix (angstroms):
                    1          2          3          4          5
     1  Pt   0.000000
     2  Br   2.489437   0.000000
     3  Cl   2.380952   4.870389   0.000000
     4  Cl   2.362665   3.426105   3.360150   0.000000
     5  Cl   2.362665   3.426105   3.360150   3.341293   0.000000
     6  Cl   2.362665   3.426105   3.360150   4.725301   3.341293
     7  Cl   2.362665   3.426105   3.360150   3.341293   4.725301
                    6          7
     6  Cl   0.000000
     7  Cl   3.341293   0.000000
 Stoichiometry    BrCl5Pt(2-)
 Framework group  C4V[C4(BrPtCl),2SGV(Cl2)]
 Deg. of freedom     4
 Full point group                 C4V     NOp   8
 Largest Abelian subgroup         C2V     NOp   4
 Largest concise Abelian subgroup C2V     NOp   4
                         Standard orientation:                         
 ---------------------------------------------------------------------
 Center     Atomic      Atomic             Coordinates (Angstroms)
 Number     Number       Type             X           Y           Z
 ---------------------------------------------------------------------
      1         78           0        0.000000    0.000000    0.238475
      2         35           0        0.000000    0.000000   -2.250962
      3         17           0        0.000000    0.000000    2.619427
      4         17           0        0.000000    2.362651    0.230182
      5         17           0        2.362651    0.000000    0.230182
      6         17           0        0.000000   -2.362651    0.230182
      7         17           0       -2.362651    0.000000    0.230182
 ---------------------------------------------------------------------
 Rotational constants (GHZ):      0.6472571      0.4819652      0.4819652
 Basis read from rwf:  (5D, 7F)
 Pseudo-potential data read from rwf file.
 There are    60 symmetry adapted basis functions of A1  symmetry.
 There are    16 symmetry adapted basis functions of A2  symmetry.
 There are    34 symmetry adapted basis functions of B1  symmetry.
 There are    34 symmetry adapted basis functions of B2  symmetry.
 Integral buffers will be    131072 words long.
 Raffenetti 2 integral format.
 Two-electron integral symmetry is turned on.
   144 basis functions,   308 primitive gaussians,   154 cartesian basis functions
    70 alpha electrons       70 beta electrons
       nuclear repulsion energy      1338.1875751455 Hartrees.
 NAtoms=    7 NActive=    7 NUniq=    4 SFac= 2.30D+00 NAtFMM=   80 NAOKFM=F Big=F
 ------------------------------------------------------------------------------
 Polarizable Continuum Model (PCM)
 =================================
 Model                : PCM.
 Atomic radii         : UFF (Universal Force Field).
 Polarization charges : Total charges.
 Charge compensation  : None.
 Solution method      : Matrix inversion.
 Cavity type          : Scaled VdW (van der Waals Surface) (Alpha=1.100).
 Cavity algorithm     : GePol (No added spheres)
                        Default sphere list used, NSphG=    7.
                        Lebedev-Laikov grids with approx.  5.0 points / Ang**2.
                        Smoothing algorithm: Karplus/York (Gamma=1.0000).
                        Polarization charges: spherical gaussians, with
                                              point-specific exponents (IZeta= 3).
                        Self-potential: point-specific (ISelfS= 7).
                        Self-field    : sphere-specific E.n sum rule (ISelfD= 2).
 1st derivatives      : Analytical E(r).r(x)/FMM algorithm (CHGder, D1EAlg=3).
                        Cavity 1st derivative terms included.
 Solvent              : Water, Eps=  78.355300 Eps(inf)=   1.777849
 ------------------------------------------------------------------------------
 Spheres list:
 ISph  on   Nord    Re0     Alpha      Xe            Ye            Ze
    1  Pt      1    1.377   1.100      0.000000      0.000000      0.238475
    2  Br      2    2.095   1.100      0.000000      0.000000     -2.250962
    3  Cl      3    1.974   1.100      0.000000      0.000000      2.619427
    4  Cl      4    1.974   1.100      0.000000      2.362651      0.230182
    5  Cl      5    1.974   1.100      2.362651      0.000000      0.230182
    6  Cl      6    1.974   1.100      0.000000     -2.362651      0.230182
    7  Cl      7    1.974   1.100     -2.362651      0.000000      0.230182
 ------------------------------------------------------------------------------
 One-electron integrals computed using PRISM.
   8 Symmetry operations used in ECPInt.
 ECPInt:  NShTT=    1830 NPrTT=    9482 LenC2=    1698 LenP2D=    6243.
 LDataN:  DoStor=T MaxTD1= 6 Len=  172
 NBasis=   144 RedAO= T  NBF=    60    16    34    34
 NBsUse=   144 1.00D-06 NBFU=    60    16    34    34
 Defaulting to unpruned grid for atomic number  78.
 Initial guess read from the read-write file.
 B after Tr=     0.000000    0.000000    0.000000
         Rot=    1.000000    0.000000    0.000000    0.000000 Ang=   0.00 deg.
 Initial guess orbital symmetries:
       Occupied  (A1) (A1) (E) (E) (B2) (A1) (A1) (A1) (E) (E)
                 (E) (E) (A1) (B2) (A1) (A1) (E) (E) (B2) (A1)
                 (A1) (A1) (A2) (E) (E) (E) (E) (B2) (B1) (E) (E)
                 (A1) (E) (E) (A1) (A1) (E) (E) (B1) (B2) (E) (E)
                 (A1) (A1) (B2) (E) (E) (A1) (A1) (B2) (A1) (A1)
                 (B1) (E) (E) (E) (E) (A1) (B2) (E) (E) (E) (E)
                 (A1) (E) (E) (B1) (A2) (E) (E)
       Virtual   (A1) (B2) (A1) (E) (E) (A1) (A1) (E) (E) (E) (E)
                 (B1) (A1) (A1) (B2) (B1) (A1) (B2) (E) (E) (B2)
                 (A1) (A1) (E) (E) (E) (E) (A1) (E) (E) (A2) (B2)
                 (E) (E) (A1) (B2) (E) (E) (E) (E) (B1) (A2) (B2)
                 (B1) (A1) (B1) (E) (E) (E) (E) (B2) (E) (E) (A1)
                 (A2) (B2) (E) (E) (A1) (A1) (E) (E) (B1) (A1)
                 (E) (E) (A1) (B2) (B1) (B2) (E) (E) (A1) (A1)
 Harris functional with IExCor=  402 diagonalized for initial guess.
 ExpMin= 2.90D-02 ExpMax= 1.13D+05 ExpMxC= 1.70D+04 IAcc=3 IRadAn=         0 AccDes= 0.00D+00
 HarFok:  IExCor=  402 AccDes= 0.00D+00 IRadAn=         0 IDoV= 1
 ScaDFX=  1.000000  1.000000  1.000000  1.000000
 Defaulting to unpruned grid for atomic number  78.
 Defaulting to unpruned grid for atomic number  78.
 Defaulting to unpruned grid for atomic number  78.
 Defaulting to unpruned grid for atomic number  78.
 Defaulting to unpruned grid for atomic number  78.
 Defaulting to unpruned grid for atomic number  78.
 Defaulting to unpruned grid for atomic number  78.
 Defaulting to unpruned grid for atomic number  78.
 Defaulting to unpruned grid for atomic number  78.
 Defaulting to unpruned grid for atomic number  78.
 Defaulting to unpruned grid for atomic number  78.
 Defaulting to unpruned grid for atomic number  78.
 Defaulting to unpruned grid for atomic number  78.
 Defaulting to unpruned grid for atomic number  78.
 Defaulting to unpruned grid for atomic number  78.
 Defaulting to unpruned grid for atomic number  78.
 Defaulting to unpruned grid for atomic number  78.
 Defaulting to unpruned grid for atomic number  78.
 Defaulting to unpruned grid for atomic number  78.
 Defaulting to unpruned grid for atomic number  78.
 Defaulting to unpruned grid for atomic number  78.
 Defaulting to unpruned grid for atomic number  78.
 Defaulting to unpruned grid for atomic number  78.
 Defaulting to unpruned grid for atomic number  78.
 FoFCou: FMM=F IPFlag=           0 FMFlag=      100000 FMFlg1=           0
         NFxFlg=           0 DoJE=T BraDBF=F KetDBF=T FulRan=T
         Omega=  0.000000  0.000000  1.000000  0.000000  0.000000 ICntrl=     500 IOpCl=  0
         NMat0=    1 NMatS0=    1 NMatT0=    0 NMatD0=    1 NMtDS0=    0 NMtDT0=    0
         I1Cent=           4 NGrid=           0.
 Petite list used in FoFCou.
 Requested convergence on RMS density matrix=1.00D-08 within 128 cycles.
 Requested convergence on MAX density matrix=1.00D-06.
 Requested convergence on             energy=1.00D-06.
 No special actions if energy rises.
 Keep R1 ints in memory in canonical form, NReq=76312548.
 Defaulting to unpruned grid for atomic number  78.
 Defaulting to unpruned grid for atomic number  78.
 Defaulting to unpruned grid for atomic number  78.
 Defaulting to unpruned grid for atomic number  78.
 Defaulting to unpruned grid for atomic number  78.
 Defaulting to unpruned grid for atomic number  78.
 Defaulting to unpruned grid for atomic number  78.
 Defaulting to unpruned grid for atomic number  78.
 Defaulting to unpruned grid for atomic number  78.
 Defaulting to unpruned grid for atomic number  78.
 Defaulting to unpruned grid for atomic number  78.
 Defaulting to unpruned grid for atomic number  78.
 Defaulting to unpruned grid for atomic number  78.
 Defaulting to unpruned grid for atomic number  78.
 Defaulting to unpruned grid for atomic number  78.
 Defaulting to unpruned grid for atomic number  78.
 Defaulting to unpruned grid for atomic number  78.
 Defaulting to unpruned grid for atomic number  78.
 Defaulting to unpruned grid for atomic number  78.
 Defaulting to unpruned grid for atomic number  78.
 Defaulting to unpruned grid for atomic number  78.
 Defaulting to unpruned grid for atomic number  78.
 Defaulting to unpruned grid for atomic number  78.
 Defaulting to unpruned grid for atomic number  78.
 Error on total polarization charges =  0.01717
 SCF Done:  E(RB3LYP) =  -4993.85748969     A.U. after   10 cycles
             Convg  =    0.3423D-08             -V/T =  2.0183
   8 Symmetry operations used in ECPInt.
 ECPInt:  NShTT=    1830 NPrTT=    9482 LenC2=    1698 LenP2D=    6243.
 LDataN:  DoStor=T MaxTD1= 7 Len=  274
 D1PCM: PCM CHGder 1st derivatives, ID1Alg=3 FixD1E=F DoIter=F DoCFld=F I1PDM=0.
 Calling FoFJK, ICntrl=      2127 FMM=F ISym2X=1 I1Cent= 0 IOpClX= 0 NMat=1 NMatS=1 NMatT=0.
 Defaulting to unpruned grid for atomic number  78.
 Defaulting to unpruned grid for atomic number  78.
 Defaulting to unpruned grid for atomic number  78.
 Defaulting to unpruned grid for atomic number  78.
 Defaulting to unpruned grid for atomic number  78.
 Defaulting to unpruned grid for atomic number  78.
 Defaulting to unpruned grid for atomic number  78.
 Defaulting to unpruned grid for atomic number  78.
 Defaulting to unpruned grid for atomic number  78.
 Defaulting to unpruned grid for atomic number  78.
 Defaulting to unpruned grid for atomic number  78.
 Defaulting to unpruned grid for atomic number  78.
 Defaulting to unpruned grid for atomic number  78.
 Defaulting to unpruned grid for atomic number  78.
 Defaulting to unpruned grid for atomic number  78.
 Defaulting to unpruned grid for atomic number  78.
 Defaulting to unpruned grid for atomic number  78.
 Defaulting to unpruned grid for atomic number  78.
 Defaulting to unpruned grid for atomic number  78.
 Defaulting to unpruned grid for atomic number  78.
 Defaulting to unpruned grid for atomic number  78.
 Defaulting to unpruned grid for atomic number  78.
 Defaulting to unpruned grid for atomic number  78.
 Defaulting to unpruned grid for atomic number  78.
 ***** Axes restored to original set *****
 -------------------------------------------------------------------
 Center     Atomic                   Forces (Hartrees/Bohr)
 Number     Number              X              Y              Z
 -------------------------------------------------------------------
      1       78           0.000000000    0.000000000   -0.001182679
      2       35           0.000000000    0.000000000    0.013550633
      3       17           0.000000000    0.000000000   -0.015861626
      4       17          -0.010236577   -0.010236577    0.000873418
      5       17           0.010236577   -0.010236577    0.000873418
      6       17           0.010236577    0.010236577    0.000873418
      7       17          -0.010236577    0.010236577    0.000873418
 -------------------------------------------------------------------
 Cartesian Forces:  Max     0.015861626 RMS     0.007800980

 GradGradGradGradGradGradGradGradGradGradGradGradGradGradGradGradGradGrad
 Berny optimization.
 Search for a local minimum.
 Step number   3 out of a maximum of   31
 All quantities printed in internal units (Hartrees-Bohrs-Radians)
 Update second derivatives using D2CorN and points    3    1
 Energy Rises -- skip Quadratic search.
 Quartic linear search produced a step of -0.69704.
 ClnCor:  largest displacement from symmetrization is 1.40D-15 for atom     5.
 TrRot=  0.000000  0.000000  0.000000  0.000000  0.000000  0.000000
 Variable       Old X    -DE/DX   Delta X   Delta X   Delta X     New X
                                 (Linear)    (Quad)   (Total)
    X1        0.00000   0.00000   0.00000   0.00000   0.00000   0.00000
    Y1        0.00000   0.00000   0.00000   0.00000   0.00000   0.00000
    Z1       -0.45132  -0.00118   0.00153   0.00000   0.00153  -0.44979
    X2        0.00000   0.00000   0.00000   0.00000   0.00000   0.00000
    Y2        0.00000   0.00000   0.00000   0.00000   0.00000   0.00000
    Z2        4.25303   0.01355  -0.00004   0.00000  -0.00004   4.25299
    X3        0.00000   0.00000   0.00000   0.00000   0.00000   0.00000
    Y3        0.00000   0.00000   0.00000   0.00000   0.00000   0.00000
    Z3       -4.95067  -0.01586   0.04554   0.00000   0.04554  -4.90513
    X4       -3.15706  -0.01024   0.01583   0.00000   0.01583  -3.14124
    Y4       -3.15706  -0.01024   0.01583   0.00000   0.01583  -3.14124
    Z4       -0.43565   0.00087  -0.01176   0.00000  -0.01176  -0.44741
    X5        3.15706   0.01024  -0.01583   0.00000  -0.01583   3.14124
    Y5       -3.15706  -0.01024   0.01583   0.00000   0.01583  -3.14124
    Z5       -0.43565   0.00087  -0.01176   0.00000  -0.01176  -0.44741
    X6        3.15706   0.01024  -0.01583   0.00000  -0.01583   3.14124
    Y6        3.15706   0.01024  -0.01583   0.00000  -0.01583   3.14124
    Z6       -0.43565   0.00087  -0.01176   0.00000  -0.01176  -0.44741
    X7       -3.15706  -0.01024   0.01583   0.00000   0.01583  -3.14124
    Y7        3.15706   0.01024  -0.01583   0.00000  -0.01583   3.14124
    Z7       -0.43565   0.00087  -0.01176   0.00000  -0.01176  -0.44741
         Item               Value     Threshold  Converged?
 Maximum Force            0.015862     0.002500     NO 
 RMS     Force            0.007801     0.001667     NO 
 Maximum Displacement     0.045541     0.010000     NO 
 RMS     Displacement     0.014854     0.006667     NO 
 Predicted change in Energy=-7.821000D-02
 GradGradGradGradGradGradGradGradGradGradGradGradGradGradGradGradGradGrad

                          Input orientation:                          
 ---------------------------------------------------------------------
 Center     Atomic      Atomic             Coordinates (Angstroms)
 Number     Number       Type             X           Y           Z
 ---------------------------------------------------------------------
      1         78           0        0.000000    0.000000   -0.238020
      2         35           0        0.000000    0.000000    2.250586
      3         17           0        0.000000    0.000000   -2.595683
      4         17           0       -1.662271   -1.662271   -0.236760
      5         17           0        1.662271   -1.662271   -0.236760
      6         17           0        1.662271    1.662271   -0.236760
      7         17           0       -1.662271    1.662271   -0.236760
 ---------------------------------------------------------------------
                    Distance matrix (angstroms):
                    1          2          3          4          5
     1  Pt   0.000000
     2  Br   2.488606   0.000000
     3  Cl   2.357663   4.846269   0.000000
     4  Cl   2.350807   3.422452   3.330287   0.000000
     5  Cl   2.350807   3.422452   3.330287   3.324542   0.000000
     6  Cl   2.350807   3.422452   3.330287   4.701613   3.324542
     7  Cl   2.350807   3.422452   3.330287   3.324542   4.701613
                    6          7
     6  Cl   0.000000
     7  Cl   3.324542   0.000000
 Stoichiometry    BrCl5Pt(2-)
 Framework group  C4V[C4(BrPtCl),2SGV(Cl2)]
 Deg. of freedom     4
 Full point group                 C4V     NOp   8
 Largest Abelian subgroup         C2V     NOp   4
 Largest concise Abelian subgroup C2V     NOp   4
                         Standard orientation:                         
 ---------------------------------------------------------------------
 Center     Atomic      Atomic             Coordinates (Angstroms)
 Number     Number       Type             X           Y           Z
 ---------------------------------------------------------------------
      1         78           0        0.000000    0.000000    0.237912
      2         35           0        0.000000    0.000000   -2.250694
      3         17           0        0.000000    0.000000    2.595575
      4         17           0        0.000000    2.350806    0.236652
      5         17           0        2.350806    0.000000    0.236652
      6         17           0        0.000000   -2.350806    0.236652
      7         17           0       -2.350806    0.000000    0.236652
 ---------------------------------------------------------------------
 Rotational constants (GHZ):      0.6537958      0.4856611      0.4856611
 Basis read from rwf:  (5D, 7F)
 Pseudo-potential data read from rwf file.
 There are    60 symmetry adapted basis functions of A1  symmetry.
 There are    16 symmetry adapted basis functions of A2  symmetry.
 There are    34 symmetry adapted basis functions of B1  symmetry.
 There are    34 symmetry adapted basis functions of B2  symmetry.
 Integral buffers will be    131072 words long.
 Raffenetti 2 integral format.
 Two-electron integral symmetry is turned on.
   144 basis functions,   308 primitive gaussians,   154 cartesian basis functions
    70 alpha electrons       70 beta electrons
       nuclear repulsion energy      1343.8821288358 Hartrees.
 NAtoms=    7 NActive=    7 NUniq=    4 SFac= 2.30D+00 NAtFMM=   80 NAOKFM=F Big=F
 ------------------------------------------------------------------------------
 Polarizable Continuum Model (PCM)
 =================================
 Model                : PCM.
 Atomic radii         : UFF (Universal Force Field).
 Polarization charges : Total charges.
 Charge compensation  : None.
 Solution method      : Matrix inversion.
 Cavity type          : Scaled VdW (van der Waals Surface) (Alpha=1.100).
 Cavity algorithm     : GePol (No added spheres)
                        Default sphere list used, NSphG=    7.
                        Lebedev-Laikov grids with approx.  5.0 points / Ang**2.
                        Smoothing algorithm: Karplus/York (Gamma=1.0000).
                        Polarization charges: spherical gaussians, with
                                              point-specific exponents (IZeta= 3).
                        Self-potential: point-specific (ISelfS= 7).
                        Self-field    : sphere-specific E.n sum rule (ISelfD= 2).
 1st derivatives      : Analytical E(r).r(x)/FMM algorithm (CHGder, D1EAlg=3).
                        Cavity 1st derivative terms included.
 Solvent              : Water, Eps=  78.355300 Eps(inf)=   1.777849
 ------------------------------------------------------------------------------
 Spheres list:
 ISph  on   Nord    Re0     Alpha      Xe            Ye            Ze
    1  Pt      1    1.377   1.100      0.000000      0.000000      0.237912
    2  Br      2    2.095   1.100      0.000000      0.000000     -2.250694
    3  Cl      3    1.973   1.100      0.000000      0.000000      2.595575
    4  Cl      4    1.973   1.100      0.000000      2.350806      0.236652
    5  Cl      5    1.973   1.100      2.350806      0.000000      0.236652
    6  Cl      6    1.973   1.100      0.000000     -2.350806      0.236652
    7  Cl      7    1.973   1.100     -2.350806      0.000000      0.236652
 ------------------------------------------------------------------------------
 One-electron integrals computed using PRISM.
   8 Symmetry operations used in ECPInt.
 ECPInt:  NShTT=    1830 NPrTT=    9482 LenC2=    1699 LenP2D=    6245.
 LDataN:  DoStor=T MaxTD1= 6 Len=  172
 NBasis=   144 RedAO= T  NBF=    60    16    34    34
 NBsUse=   144 1.00D-06 NBFU=    60    16    34    34
 Defaulting to unpruned grid for atomic number  78.
 Initial guess read from the read-write file.
 B after Tr=     0.000000    0.000000    0.000000
         Rot=    1.000000    0.000000    0.000000    0.000000 Ang=   0.00 deg.
 Initial guess orbital symmetries:
       Occupied  (A1) (A1) (E) (E) (B2) (A1) (A1) (A1) (E) (E)
                 (E) (E) (A1) (B2) (A1) (A1) (E) (E) (B2) (A1)
                 (A1) (A1) (A2) (E) (E) (E) (E) (B2) (B1) (E) (E)
                 (A1) (E) (E) (A1) (A1) (E) (E) (B1) (B2) (E) (E)
                 (A1) (A1) (B2) (E) (E) (A1) (A1) (B2) (A1) (A1)
                 (B1) (E) (E) (E) (E) (A1) (B2) (E) (E) (E) (E)
                 (A1) (E) (E) (B1) (A2) (E) (E)
       Virtual   (A1) (B2) (A1) (E) (E) (A1) (A1) (E) (E) (E) (E)
                 (B1) (A1) (A1) (B2) (B1) (A1) (B2) (E) (E) (B2)
                 (A1) (A1) (E) (E) (E) (E) (A1) (E) (E) (A2) (E)
                 (E) (B2) (A1) (B2) (E) (E) (E) (E) (B1) (A2) (B1)
                 (B2) (A1) (B1) (E) (E) (E) (E) (B2) (E) (E) (A1)
                 (A2) (B2) (E) (E) (A1) (A1) (E) (E) (B1) (A1)
                 (E) (E) (A1) (B2) (B1) (B2) (E) (E) (A1) (A1)
 Harris functional with IExCor=  402 diagonalized for initial guess.
 ExpMin= 2.90D-02 ExpMax= 1.13D+05 ExpMxC= 1.70D+04 IAcc=3 IRadAn=         0 AccDes= 0.00D+00
 HarFok:  IExCor=  402 AccDes= 0.00D+00 IRadAn=         0 IDoV= 1
 ScaDFX=  1.000000  1.000000  1.000000  1.000000
 Defaulting to unpruned grid for atomic number  78.
 Defaulting to unpruned grid for atomic number  78.
 Defaulting to unpruned grid for atomic number  78.
 Defaulting to unpruned grid for atomic number  78.
 Defaulting to unpruned grid for atomic number  78.
 Defaulting to unpruned grid for atomic number  78.
 Defaulting to unpruned grid for atomic number  78.
 Defaulting to unpruned grid for atomic number  78.
 Defaulting to unpruned grid for atomic number  78.
 Defaulting to unpruned grid for atomic number  78.
 Defaulting to unpruned grid for atomic number  78.
 Defaulting to unpruned grid for atomic number  78.
 Defaulting to unpruned grid for atomic number  78.
 Defaulting to unpruned grid for atomic number  78.
 Defaulting to unpruned grid for atomic number  78.
 Defaulting to unpruned grid for atomic number  78.
 Defaulting to unpruned grid for atomic number  78.
 Defaulting to unpruned grid for atomic number  78.
 Defaulting to unpruned grid for atomic number  78.
 Defaulting to unpruned grid for atomic number  78.
 Defaulting to unpruned grid for atomic number  78.
 Defaulting to unpruned grid for atomic number  78.
 Defaulting to unpruned grid for atomic number  78.
 Defaulting to unpruned grid for atomic number  78.
 FoFCou: FMM=F IPFlag=           0 FMFlag=      100000 FMFlg1=           0
         NFxFlg=           0 DoJE=T BraDBF=F KetDBF=T FulRan=T
         Omega=  0.000000  0.000000  1.000000  0.000000  0.000000 ICntrl=     500 IOpCl=  0
         NMat0=    1 NMatS0=    1 NMatT0=    0 NMatD0=    1 NMtDS0=    0 NMtDT0=    0
         I1Cent=           4 NGrid=           0.
 Petite list used in FoFCou.
 Requested convergence on RMS density matrix=1.00D-08 within 128 cycles.
 Requested convergence on MAX density matrix=1.00D-06.
 Requested convergence on             energy=1.00D-06.
 No special actions if energy rises.
 Keep R1 ints in memory in canonical form, NReq=76302030.
 Defaulting to unpruned grid for atomic number  78.
 Defaulting to unpruned grid for atomic number  78.
 Defaulting to unpruned grid for atomic number  78.
 Defaulting to unpruned grid for atomic number  78.
 Defaulting to unpruned grid for atomic number  78.
 Defaulting to unpruned grid for atomic number  78.
 Defaulting to unpruned grid for atomic number  78.
 Defaulting to unpruned grid for atomic number  78.
 Defaulting to unpruned grid for atomic number  78.
 Defaulting to unpruned grid for atomic number  78.
 Defaulting to unpruned grid for atomic number  78.
 Defaulting to unpruned grid for atomic number  78.
 Defaulting to unpruned grid for atomic number  78.
 Defaulting to unpruned grid for atomic number  78.
 Defaulting to unpruned grid for atomic number  78.
 Defaulting to unpruned grid for atomic number  78.
 Defaulting to unpruned grid for atomic number  78.
 Defaulting to unpruned grid for atomic number  78.
 Defaulting to unpruned grid for atomic number  78.
 Defaulting to unpruned grid for atomic number  78.
 Defaulting to unpruned grid for atomic number  78.
 Defaulting to unpruned grid for atomic number  78.
 Defaulting to unpruned grid for atomic number  78.
 Defaulting to unpruned grid for atomic number  78.
 Error on total polarization charges =  0.01746
 SCF Done:  E(RB3LYP) =  -4993.85364805     A.U. after    9 cycles
             Convg  =    0.7939D-08             -V/T =  2.0183
   8 Symmetry operations used in ECPInt.
 ECPInt:  NShTT=    1830 NPrTT=    9482 LenC2=    1699 LenP2D=    6245.
 LDataN:  DoStor=T MaxTD1= 7 Len=  274
 D1PCM: PCM CHGder 1st derivatives, ID1Alg=3 FixD1E=F DoIter=F DoCFld=F I1PDM=0.
 Calling FoFJK, ICntrl=      2127 FMM=F ISym2X=1 I1Cent= 0 IOpClX= 0 NMat=1 NMatS=1 NMatT=0.
 Defaulting to unpruned grid for atomic number  78.
 Defaulting to unpruned grid for atomic number  78.
 Defaulting to unpruned grid for atomic number  78.
 Defaulting to unpruned grid for atomic number  78.
 Defaulting to unpruned grid for atomic number  78.
 Defaulting to unpruned grid for atomic number  78.
 Defaulting to unpruned grid for atomic number  78.
 Defaulting to unpruned grid for atomic number  78.
 Defaulting to unpruned grid for atomic number  78.
 Defaulting to unpruned grid for atomic number  78.
 Defaulting to unpruned grid for atomic number  78.
 Defaulting to unpruned grid for atomic number  78.
 Defaulting to unpruned grid for atomic number  78.
 Defaulting to unpruned grid for atomic number  78.
 Defaulting to unpruned grid for atomic number  78.
 Defaulting to unpruned grid for atomic number  78.
 Defaulting to unpruned grid for atomic number  78.
 Defaulting to unpruned grid for atomic number  78.
 Defaulting to unpruned grid for atomic number  78.
 Defaulting to unpruned grid for atomic number  78.
 Defaulting to unpruned grid for atomic number  78.
 Defaulting to unpruned grid for atomic number  78.
 Defaulting to unpruned grid for atomic number  78.
 Defaulting to unpruned grid for atomic number  78.
 ***** Axes restored to original set *****
 -------------------------------------------------------------------
 Center     Atomic                   Forces (Hartrees/Bohr)
 Number     Number              X              Y              Z
 -------------------------------------------------------------------
      1       78           0.000000000    0.000000000    0.000869893
      2       35           0.000000000    0.000000000    0.015272885
      3       17           0.000000000    0.000000000   -0.101905726
      4       17          -0.034740280   -0.034740280    0.021440737
      5       17           0.034740280   -0.034740280    0.021440737
      6       17           0.034740280    0.034740280    0.021440737
      7       17          -0.034740280    0.034740280    0.021440737
 -------------------------------------------------------------------
 Cartesian Forces:  Max     0.101905726 RMS     0.032449750

 GradGradGradGradGradGradGradGradGradGradGradGradGradGradGradGradGradGrad
 Berny optimization.
 Search for a local minimum.
 Step number   4 out of a maximum of   31
 All quantities printed in internal units (Hartrees-Bohrs-Radians)
 Update second derivatives using D2CorN and points    4    1
 Energy Rises -- skip Quadratic search.
 Quartic linear search produced a step of -0.76824.
 ClnCor:  largest displacement from symmetrization is 2.51D-15 for atom     5.
 TrRot=  0.000000  0.000000  0.000000  0.000000  0.000000  0.000000
 Variable       Old X    -DE/DX   Delta X   Delta X   Delta X     New X
                                 (Linear)    (Quad)   (Total)
    X1        0.00000   0.00000   0.00000   0.00000   0.00000   0.00000
    Y1        0.00000   0.00000   0.00000   0.00000   0.00000   0.00000
    Z1       -0.44979   0.00087   0.00051   0.00000   0.00051  -0.44928
    X2        0.00000   0.00000   0.00000   0.00000   0.00000   0.00000
    Y2        0.00000   0.00000   0.00000   0.00000   0.00000   0.00000
    Z2        4.25299   0.01527  -0.00001   0.00000  -0.00001   4.25298
    X3        0.00000   0.00000   0.00000   0.00000   0.00000   0.00000
    Y3        0.00000   0.00000   0.00000   0.00000   0.00000   0.00000
    Z3       -4.90513  -0.10191   0.01521   0.00000   0.01521  -4.88992
    X4       -3.14124  -0.03474   0.00528   0.00000   0.00528  -3.13595
    Y4       -3.14124  -0.03474   0.00528   0.00000   0.00528  -3.13595
    Z4       -0.44741   0.02144  -0.00393   0.00000  -0.00393  -0.45134
    X5        3.14124   0.03474  -0.00528   0.00000  -0.00528   3.13595
    Y5       -3.14124  -0.03474   0.00528   0.00000   0.00528  -3.13595
    Z5       -0.44741   0.02144  -0.00393   0.00000  -0.00393  -0.45134
    X6        3.14124   0.03474  -0.00528   0.00000  -0.00528   3.13595
    Y6        3.14124   0.03474  -0.00528   0.00000  -0.00528   3.13595
    Z6       -0.44741   0.02144  -0.00393   0.00000  -0.00393  -0.45134
    X7       -3.14124  -0.03474   0.00528   0.00000   0.00528  -3.13595
    Y7        3.14124   0.03474  -0.00528   0.00000  -0.00528   3.13595
    Z7       -0.44741   0.02144  -0.00393   0.00000  -0.00393  -0.45134
         Item               Value     Threshold  Converged?
 Maximum Force            0.101906     0.002500     NO 
 RMS     Force            0.032450     0.001667     NO 
 Maximum Displacement     0.015206     0.010000     NO 
 RMS     Displacement     0.004960     0.006667     YES
 Predicted change in Energy=-4.210135D-02
 GradGradGradGradGradGradGradGradGradGradGradGradGradGradGradGradGradGrad

                          Input orientation:                          
 ---------------------------------------------------------------------
 Center     Atomic      Atomic             Coordinates (Angstroms)
 Number     Number       Type             X           Y           Z
 ---------------------------------------------------------------------
      1         78           0        0.000000    0.000000   -0.237750
      2         35           0        0.000000    0.000000    2.250579
[...]
 ---------------------------------------------------------------------
                    Distance matrix (angstroms):
                    1          2          3          4          5
     1  Pt   0.000000
     2  Br   2.484489   0.000000
     3  Cl   2.354274   4.838763   0.000000
     4  Cl   2.345654   3.419940   3.320331   0.000000
     5  Cl   2.345654   3.419940   3.320331   3.317250   0.000000
     6  Cl   2.345654   3.419940   3.320331   4.691299   3.317250
     7  Cl   2.345654   3.419940   3.320331   3.317250   4.691299
                    6          7
     6  Cl   0.000000
     7  Cl   3.317250   0.000000
 Stoichiometry    BrCl5Pt(2-)
 Framework group  C4V[C4(BrPtCl),2SGV(Cl2)]
 Deg. of freedom     4
 Full point group                 C4V     NOp   8
 Largest Abelian subgroup         C2V     NOp   4
 Largest concise Abelian subgroup C2V     NOp   4
                         Standard orientation:                         
 ---------------------------------------------------------------------
 Center     Atomic      Atomic             Coordinates (Angstroms)
 Number     Number       Type             X           Y           Z
 ---------------------------------------------------------------------
      1         78           0        0.000000    0.000000    0.235577
      2         35           0        0.000000    0.000000   -2.248913
      3         17           0        0.000000    0.000000    2.589851
      4         17           0        0.000000    2.345650    0.239845
      5         17           0        2.345650    0.000000    0.239845
      6         17           0        0.000000   -2.345650    0.239845
      7         17           0       -2.345650    0.000000    0.239845
 ---------------------------------------------------------------------
 Rotational constants (GHZ):      0.6566735      0.4872387      0.4872387
 Basis read from rwf:  (5D, 7F)
 Pseudo-potential data read from rwf file.
 There are    60 symmetry adapted basis functions of A1  symmetry.
 There are    16 symmetry adapted basis functions of A2  symmetry.
 There are    34 symmetry adapted basis functions of B1  symmetry.
 There are    34 symmetry adapted basis functions of B2  symmetry.
 Integral buffers will be    131072 words long.
 Raffenetti 2 integral format.
 Two-electron integral symmetry is turned on.
   144 basis functions,   308 primitive gaussians,   154 cartesian basis functions
    70 alpha electrons       70 beta electrons
       nuclear repulsion energy      1346.2776676117 Hartrees.
 NAtoms=    7 NActive=    7 NUniq=    4 SFac= 2.30D+00 NAtFMM=   80 NAOKFM=F Big=F
 ------------------------------------------------------------------------------
 Polarizable Continuum Model (PCM)
 =================================
 Model                : PCM.
 Atomic radii         : UFF (Universal Force Field).
 Polarization charges : Total charges.
 Charge compensation  : None.
 Solution method      : Matrix inversion.
 Cavity type          : Scaled VdW (van der Waals Surface) (Alpha=1.100).
 Cavity algorithm     : GePol (No added spheres)
                        Default sphere list used, NSphG=    7.
                        Lebedev-Laikov grids with approx.  5.0 points / Ang**2.
                        Smoothing algorithm: Karplus/York (Gamma=1.0000).
                        Polarization charges: spherical gaussians, with
                                              point-specific exponents (IZeta= 3).
                        Self-potential: point-specific (ISelfS= 7).
                        Self-field    : sphere-specific E.n sum rule (ISelfD= 2).
 1st derivatives      : Analytical E(r).r(x)/FMM algorithm (CHGder, D1EAlg=3).
                        Cavity 1st derivative terms included.
 Solvent              : Water, Eps=  78.355300 Eps(inf)=   1.777849
 ------------------------------------------------------------------------------
 Spheres list:
 ISph  on   Nord    Re0     Alpha      Xe            Ye            Ze
    1  Pt      1    1.377   1.100      0.000000      0.000000      0.235577
    2  Br      2    2.095   1.100      0.000000      0.000000     -2.248913
    3  Cl      3    1.973   1.100      0.000000      0.000000      2.589851
    4  Cl      4    1.973   1.100      0.000000      2.345650      0.239845
    5  Cl      5    1.973   1.100      2.345650      0.000000      0.239845
    6  Cl      6    1.973   1.100      0.000000     -2.345650      0.239845
    7  Cl      7    1.973   1.100     -2.345650      0.000000      0.239845
 ------------------------------------------------------------------------------
 One-electron integrals computed using PRISM.
   8 Symmetry operations used in ECPInt.
 ECPInt:  NShTT=    1830 NPrTT=    9482 LenC2=    1699 LenP2D=    6249.
 LDataN:  DoStor=T MaxTD1= 6 Len=  172
 NBasis=   144 RedAO= T  NBF=    60    16    34    34
 NBsUse=   144 1.00D-06 NBFU=    60    16    34    34
 Defaulting to unpruned grid for atomic number  78.
 Initial guess read from the read-write file.
 B after Tr=     0.000000    0.000000    0.000000
         Rot=    1.000000    0.000000    0.000000    0.000000 Ang=   0.00 deg.
 Initial guess orbital symmetries:
       Occupied  (A1) (A1) (E) (E) (B2) (A1) (A1) (A1) (E) (E)
                 (E) (E) (A1) (B2) (A1) (A1) (E) (E) (B2) (A1)
                 (A1) (E) (E) (B2) (A2) (E) (E) (B1) (A1) (E) (E)
                 (A1) (E) (E) (A1) (A1) (E) (E) (B1) (B2) (E) (E)
                 (A1) (A1) (B2) (A1) (E) (E) (A1) (B2) (A1) (A1)
                 (E) (E) (B1) (E) (E) (A1) (E) (E) (E) (E) (B2)
                 (A1) (B1) (A2) (E) (E) (E) (E)
       Virtual   (A1) (B2) (A1) (E) (E) (A1) (E) (E) (A1) (A1)
                 (B1) (E) (E) (A1) (B2) (B1) (A1) (E) (E) (B2)
                 (B2) (A1) (E) (E) (A1) (E) (E) (A1) (E) (E) (A2)
                 (B2) (A1) (E) (E) (E) (E) (B2) (B1) (A2) (E) (E)
                 (B1) (A1) (B2) (E) (E) (B1) (E) (E) (B2) (A1)
                 (E) (E) (A2) (E) (E) (B2) (A1) (A1) (E) (E) (B1)
                 (A1) (E) (E) (A1) (B2) (B1) (B2) (E) (E) (A1)
                 (A1)
 Requested convergence on RMS density matrix=1.00D-08 within 128 cycles.
 Requested convergence on MAX density matrix=1.00D-06.
 Requested convergence on             energy=1.00D-06.
 No special actions if energy rises.
 Keep R1 ints in memory in canonical form, NReq=76302030.
 Defaulting to unpruned grid for atomic number  78.
 Defaulting to unpruned grid for atomic number  78.
 Defaulting to unpruned grid for atomic number  78.
 Defaulting to unpruned grid for atomic number  78.
 Defaulting to unpruned grid for atomic number  78.
 Defaulting to unpruned grid for atomic number  78.
 Defaulting to unpruned grid for atomic number  78.
 Defaulting to unpruned grid for atomic number  78.
 Defaulting to unpruned grid for atomic number  78.
 Defaulting to unpruned grid for atomic number  78.
 Defaulting to unpruned grid for atomic number  78.
 Defaulting to unpruned grid for atomic number  78.
 Defaulting to unpruned grid for atomic number  78.
 Defaulting to unpruned grid for atomic number  78.
 Defaulting to unpruned grid for atomic number  78.
 Defaulting to unpruned grid for atomic number  78.
 Defaulting to unpruned grid for atomic number  78.
 Defaulting to unpruned grid for atomic number  78.
 Defaulting to unpruned grid for atomic number  78.
 Defaulting to unpruned grid for atomic number  78.
 Defaulting to unpruned grid for atomic number  78.
 Defaulting to unpruned grid for atomic number  78.
 Defaulting to unpruned grid for atomic number  78.
 Defaulting to unpruned grid for atomic number  78.
 Density matrix breaks symmetry, PCut= 1.00D-04
 Density has only Abelian symmetry.
 EnCoef did     1 forward-backward iterations
 Density matrix breaks symmetry, PCut= 1.00D-04
 Density has only Abelian symmetry.
 Density matrix breaks symmetry, PCut= 1.00D-04
 Density has only Abelian symmetry.
 Density matrix breaks symmetry, PCut= 1.00D-04
 Density has only Abelian symmetry.
 Density matrix breaks symmetry, PCut= 1.00D-04
 Density has only Abelian symmetry.
 Density matrix breaks symmetry, PCut= 1.00D-04
 Density has only Abelian symmetry.
 Density matrix breaks symmetry, PCut= 1.00D-04
 Density has only Abelian symmetry.
 Density matrix breaks symmetry, PCut= 1.00D-04
 Density has only Abelian symmetry.
 Density matrix breaks symmetry, PCut= 1.00D-04
 Density has only Abelian symmetry.
 Density matrix breaks symmetry, PCut= 1.00D-04
 Density has only Abelian symmetry.
 Density matrix breaks symmetry, PCut= 1.00D-04
 Density has only Abelian symmetry.
 Density matrix breaks symmetry, PCut= 1.00D-04
 Density has only Abelian symmetry.
 Density matrix breaks symmetry, PCut= 1.00D-04
 Density has only Abelian symmetry.
 Density matrix breaks symmetry, PCut= 1.00D-04
 Density has only Abelian symmetry.
 Rare condition: small coef for last iteration:  0.000D+00
 Matrix for removal  1 Erem= -4993.77154062609     Crem= 0.000D+00
 Density matrix breaks symmetry, PCut= 1.00D-04
 Density has only Abelian symmetry.
 Matrix for removal  1 Erem= -4993.82502676354     Crem= 0.000D+00
 Density matrix breaks symmetry, PCut= 1.00D-04
 Density has only Abelian symmetry.
 Density matrix breaks symmetry, PCut= 1.00D-04
 Density has only Abelian symmetry.
 Density matrix breaks symmetry, PCut= 1.00D-04
 Density has only Abelian symmetry.
 Density matrix breaks symmetry, PCut= 1.00D-04
 Density has only Abelian symmetry.
 Density matrix breaks symmetry, PCut= 1.00D-04
 Density has only Abelian symmetry.
 Density matrix breaks symmetry, PCut= 1.00D-04
 Density has only Abelian symmetry.
 Density matrix breaks symmetry, PCut= 1.00D-04
 Density has only Abelian symmetry.
 EnCoef did   100 forward-backward iterations
 Density matrix breaks symmetry, PCut= 1.00D-04
 Density has only Abelian symmetry.
 Density matrix breaks symmetry, PCut= 1.00D-04
 Density has only Abelian symmetry.
 Rare condition: small coef for last iteration:  0.000D+00
 Density matrix breaks symmetry, PCut= 1.00D-04
 Density has only Abelian symmetry.
 Density matrix breaks symmetry, PCut= 1.00D-04
 Density has only Abelian symmetry.
 Density matrix breaks symmetry, PCut= 1.00D-04
 Density has only Abelian symmetry.
 Rare condition: small coef for last iteration:  0.000D+00
 Density matrix breaks symmetry, PCut= 1.00D-04
 Density has only Abelian symmetry.
 Density matrix breaks symmetry, PCut= 1.00D-04
 Density has only Abelian symmetry.
 Rare condition: small coef for last iteration:  0.000D+00
 Density matrix breaks symmetry, PCut= 1.00D-04
 Density has only Abelian symmetry.
 Density matrix breaks symmetry, PCut= 1.00D-04
 Density has only Abelian symmetry.
 Density matrix breaks symmetry, PCut= 1.00D-04
 Density has only Abelian symmetry.
 Density matrix breaks symmetry, PCut= 1.00D-04
 Density has only Abelian symmetry.
 Rare condition: small coef for last iteration:  0.000D+00
 Density matrix breaks symmetry, PCut= 1.00D-04
 Density has only Abelian symmetry.
 Density matrix breaks symmetry, PCut= 1.00D-04
 Density has only Abelian symmetry.
 Density matrix breaks symmetry, PCut= 1.00D-04
 Density has only Abelian symmetry.
 Density matrix breaks symmetry, PCut= 1.00D-04
 Density has only Abelian symmetry.
 Rare condition: small coef for last iteration:  0.000D+00
 Density matrix breaks symmetry, PCut= 1.00D-04
 Density has only Abelian symmetry.
 Density matrix breaks symmetry, PCut= 1.00D-04
 Density has only Abelian symmetry.
 Rare condition: small coef for last iteration:  0.000D+00
 Density matrix breaks symmetry, PCut= 1.00D-04
 Density has only Abelian symmetry.
 Density matrix breaks symmetry, PCut= 1.00D-04
 Density has only Abelian symmetry.
 Density matrix breaks symmetry, PCut= 1.00D-04
 Density has only Abelian symmetry.
 Density matrix breaks symmetry, PCut= 1.00D-04
 Density has only Abelian symmetry.
 Rare condition: small coef for last iteration:  0.000D+00
 Density matrix breaks symmetry, PCut= 1.00D-04
 Density has only Abelian symmetry.
 Density matrix breaks symmetry, PCut= 1.00D-04
 Density has only Abelian symmetry.
 Density matrix breaks symmetry, PCut= 1.00D-04
 Density has only Abelian symmetry.
 Density matrix breaks symmetry, PCut= 1.00D-04
 Density has only Abelian symmetry.
 Rare condition: small coef for last iteration:  0.000D+00
 Density matrix breaks symmetry, PCut= 1.00D-04
 Density has only Abelian symmetry.
 Density matrix breaks symmetry, PCut= 1.00D-04
 Density has only Abelian symmetry.
 Rare condition: small coef for last iteration:  0.000D+00
 Density matrix breaks symmetry, PCut= 1.00D-04
 Density has only Abelian symmetry.
 Density matrix breaks symmetry, PCut= 1.00D-04
 Density has only Abelian symmetry.
 Density matrix breaks symmetry, PCut= 1.00D-04
 Density has only Abelian symmetry.
 Density matrix breaks symmetry, PCut= 1.00D-04
 Density has only Abelian symmetry.
 Rare condition: small coef for last iteration:  0.000D+00
 Density matrix breaks symmetry, PCut= 1.00D-04
 Density has only Abelian symmetry.
 Density matrix breaks symmetry, PCut= 1.00D-04
 Density has only Abelian symmetry.
 Density matrix breaks symmetry, PCut= 1.00D-04
 Density has only Abelian symmetry.
 Density matrix breaks symmetry, PCut= 1.00D-04
 Density has only Abelian symmetry.
 Rare condition: small coef for last iteration:  0.000D+00
 Density matrix breaks symmetry, PCut= 1.00D-04
 Density has only Abelian symmetry.
 Density matrix breaks symmetry, PCut= 1.00D-04
 Density has only Abelian symmetry.
 Rare condition: small coef for last iteration:  0.000D+00
 Density matrix breaks symmetry, PCut= 1.00D-04
 Density has only Abelian symmetry.
 Density matrix breaks symmetry, PCut= 1.00D-04
 Density has only Abelian symmetry.
 Density matrix breaks symmetry, PCut= 1.00D-04
 Density has only Abelian symmetry.
 Density matrix breaks symmetry, PCut= 1.00D-04
 Density has only Abelian symmetry.
 Density matrix breaks symmetry, PCut= 1.00D-04
 Density has only Abelian symmetry.
 Density matrix breaks symmetry, PCut= 1.00D-04
 Density has only Abelian symmetry.
 Rare condition: small coef for last iteration:  0.000D+00
 Density matrix breaks symmetry, PCut= 1.00D-04
 Density has only Abelian symmetry.
 Density matrix breaks symmetry, PCut= 1.00D-04
 Density has only Abelian symmetry.
 Rare condition: small coef for last iteration:  0.000D+00
 Density matrix breaks symmetry, PCut= 1.00D-04
 Density has only Abelian symmetry.
 Density matrix breaks symmetry, PCut= 1.00D-04
 Density has only Abelian symmetry.
 Rare condition: small coef for last iteration:  0.000D+00
 Density matrix breaks symmetry, PCut= 1.00D-04
 Density has only Abelian symmetry.
 Density matrix breaks symmetry, PCut= 1.00D-04
 Density has only Abelian symmetry.
 Rare condition: small coef for last iteration:  0.000D+00
 Density matrix breaks symmetry, PCut= 1.00D-04
 Density has only Abelian symmetry.
 Density matrix breaks symmetry, PCut= 1.00D-04
 Density has only Abelian symmetry.
 Density matrix breaks symmetry, PCut= 1.00D-04
 Density has only Abelian symmetry.
 Density matrix breaks symmetry, PCut= 1.00D-04
 Density has only Abelian symmetry.
 Rare condition: small coef for last iteration:  0.000D+00
 Density matrix breaks symmetry, PCut= 1.00D-04
 Density has only Abelian symmetry.
 Density matrix breaks symmetry, PCut= 1.00D-04
 Density has only Abelian symmetry.
 Density matrix breaks symmetry, PCut= 1.00D-04
 Density has only Abelian symmetry.
 Density matrix breaks symmetry, PCut= 1.00D-04
 Density has only Abelian symmetry.
 Rare condition: small coef for last iteration:  0.000D+00
 Density matrix breaks symmetry, PCut= 1.00D-04
 Density has only Abelian symmetry.
 Density matrix breaks symmetry, PCut= 1.00D-04
 Density has only Abelian symmetry.
 Density matrix breaks symmetry, PCut= 1.00D-04
 Density has only Abelian symmetry.
 Density matrix breaks symmetry, PCut= 1.00D-04
 Density has only Abelian symmetry.
 Density matrix breaks symmetry, PCut= 1.00D-04
 Density has only Abelian symmetry.
 Density matrix breaks symmetry, PCut= 1.00D-04
 Density has only Abelian symmetry.
 Rare condition: small coef for last iteration:  0.000D+00
 Density matrix breaks symmetry, PCut= 1.00D-04
 Density has only Abelian symmetry.
 Density matrix breaks symmetry, PCut= 1.00D-04
 Density has only Abelian symmetry.
 Density matrix breaks symmetry, PCut= 1.00D-04
 Density has only Abelian symmetry.
 Density matrix breaks symmetry, PCut= 1.00D-04
 Density has only Abelian symmetry.
 Rare condition: small coef for last iteration:  0.000D+00
 Density matrix breaks symmetry, PCut= 1.00D-04
 Density has only Abelian symmetry.
 Density matrix breaks symmetry, PCut= 1.00D-04
 Density has only Abelian symmetry.
 Rare condition: small coef for last iteration:  0.000D+00
 Density matrix breaks symmetry, PCut= 1.00D-04
 Density has only Abelian symmetry.
 Density matrix breaks symmetry, PCut= 1.00D-04
 Density has only Abelian symmetry.
 Density matrix breaks symmetry, PCut= 1.00D-04
 Density has only Abelian symmetry.
 Density matrix breaks symmetry, PCut= 1.00D-04
 Density has only Abelian symmetry.
 Rare condition: small coef for last iteration:  0.000D+00
 Density matrix breaks symmetry, PCut= 1.00D-04
 Density has only Abelian symmetry.
 Density matrix breaks symmetry, PCut= 1.00D-04
 Density has only Abelian symmetry.
 Density matrix breaks symmetry, PCut= 1.00D-04
 Density has only Abelian symmetry.
 Density matrix breaks symmetry, PCut= 1.00D-04
 Density has only Abelian symmetry.
 Rare condition: small coef for last iteration:  0.000D+00
 Density matrix breaks symmetry, PCut= 1.00D-04
 Density has only Abelian symmetry.
 Density matrix breaks symmetry, PCut= 1.00D-04
 Density has only Abelian symmetry.
 Density matrix breaks symmetry, PCut= 1.00D-04
 Density has only Abelian symmetry.
 Density matrix breaks symmetry, PCut= 1.00D-04
 Density has only Abelian symmetry.
 Density matrix breaks symmetry, PCut= 1.00D-04
 Density has only Abelian symmetry.
 Density matrix breaks symmetry, PCut= 1.00D-04
 Density has only Abelian symmetry.
 Rare condition: small coef for last iteration:  0.000D+00
 Density matrix breaks symmetry, PCut= 1.00D-04
 Density has only Abelian symmetry.
 Density matrix breaks symmetry, PCut= 1.00D-04
 Density has only Abelian symmetry.
 Rare condition: small coef for last iteration:  0.000D+00
 Density matrix breaks symmetry, PCut= 1.00D-04
 Density has only Abelian symmetry.
 Density matrix breaks symmetry, PCut= 1.00D-04
 Density has only Abelian symmetry.
 Density matrix breaks symmetry, PCut= 1.00D-04
 Density has only Abelian symmetry.
 Density matrix breaks symmetry, PCut= 1.00D-04
 Density has only Abelian symmetry.
 Density matrix breaks symmetry, PCut= 1.00D-04
 Density has only Abelian symmetry.
 Density matrix breaks symmetry, PCut= 1.00D-04
 Density has only Abelian symmetry.
 Rare condition: small coef for last iteration:  0.000D+00
 Density matrix breaks symmetry, PCut= 1.00D-04
 Density has only Abelian symmetry.
 Density matrix breaks symmetry, PCut= 1.00D-04
 Density has only Abelian symmetry.
 Density matrix breaks symmetry, PCut= 1.00D-04
 Density has only Abelian symmetry.
 Density matrix breaks symmetry, PCut= 1.00D-04
 Density has only Abelian symmetry.
 Rare condition: small coef for last iteration:  0.000D+00
 Density matrix breaks symmetry, PCut= 1.00D-04
 Density has only Abelian symmetry.
 Density matrix breaks symmetry, PCut= 1.00D-04
 Density has only Abelian symmetry.
 Error on total polarization charges = -0.01175
 >>>>>>>>>> Convergence criterion not met.
 SCF Done:  E(RB3LYP) =  -5052.36016978     A.U. after  129 cycles
             Convg  =    0.4666D-01             -V/T =  2.0314
 Convergence failure -- run terminated.
 Error termination via Lnk1e in /scr/programs/g09/l502.exe at Wed Dec  1 04:48:37 2021.
 Job cpu time:  0 days  3 hours 52 minutes 12.8 seconds.
 File lengths (MBytes):  RWF=     69 Int=      0 D2E=      0 Chk=      4 Scr=      1
