 Entering Gaussian System, Link 0=g09
 Input=estrutura19_D2O.com
 Output=estrutura19_D2O.log
 Initial command:
 /home/scr/programs/g09/l1.exe "/home/scr/diego/Gau-2744.inp" -scrdir="/home/scr/diego/"
 Entering Link 1 = /home/scr/programs/g09/l1.exe PID=      2746.
  
 Copyright (c) 1988,1990,1992,1993,1995,1998,2003,2009,2013,
            Gaussian, Inc.  All Rights Reserved.
  
 This is part of the Gaussian(R) 09 program.  It is based on
 the Gaussian(R) 03 system (copyright 2003, Gaussian, Inc.),
 the Gaussian(R) 98 system (copyright 1998, Gaussian, Inc.),
 the Gaussian(R) 94 system (copyright 1995, Gaussian, Inc.),
 the Gaussian 92(TM) system (copyright 1992, Gaussian, Inc.),
 the Gaussian 90(TM) system (copyright 1990, Gaussian, Inc.),
 the Gaussian 88(TM) system (copyright 1988, Gaussian, Inc.),
 the Gaussian 86(TM) system (copyright 1986, Carnegie Mellon
 University), and the Gaussian 82(TM) system (copyright 1983,
 Carnegie Mellon University). Gaussian is a federally registered
 trademark of Gaussian, Inc.
  
 This software contains proprietary and confidential information,
 including trade secrets, belonging to Gaussian, Inc.
  
 This software is provided under written license and may be
 used, copied, transmitted, or stored only in accord with that
 written license.
  
 The following legend is applicable only to US Government
 contracts under FAR:
  
                    RESTRICTED RIGHTS LEGEND
  
 Use, reproduction and disclosure by the US Government is
 subject to restrictions as set forth in subparagraphs (a)
 and (c) of the Commercial Computer Software - Restricted
 Rights clause in FAR 52.227-19.
  
 Gaussian, Inc.
 340 Quinnipiac St., Bldg. 40, Wallingford CT 06492
  
  
 ---------------------------------------------------------------
 Warning -- This program may not be used in any manner that
 competes with the business of Gaussian, Inc. or will provide
 assistance to any competitor of Gaussian, Inc.  The licensee
 of this program is prohibited from giving any competitor of
 Gaussian, Inc. access to this program.  By using this program,
 the user acknowledges that Gaussian, Inc. is engaged in the
 business of creating and licensing software in the field of
 computational chemistry and represents and warrants to the
 licensee that it is not a competitor of Gaussian, Inc. and that
 it will not use this program in any manner prohibited above.
 ---------------------------------------------------------------
  

 Cite this work as:
 Gaussian 09, Revision D.01,
 M. J. Frisch, G. W. Trucks, H. B. Schlegel, G. E. Scuseria, 
 M. A. Robb, J. R. Cheeseman, G. Scalmani, V. Barone, B. Mennucci, 
 G. A. Petersson, H. Nakatsuji, M. Caricato, X. Li, H. P. Hratchian, 
 A. F. Izmaylov, J. Bloino, G. Zheng, J. L. Sonnenberg, M. Hada, 
 M. Ehara, K. Toyota, R. Fukuda, J. Hasegawa, M. Ishida, T. Nakajima, 
 Y. Honda, O. Kitao, H. Nakai, T. Vreven, J. A. Montgomery, Jr., 
 J. E. Peralta, F. Ogliaro, M. Bearpark, J. J. Heyd, E. Brothers, 
 K. N. Kudin, V. N. Staroverov, T. Keith, R. Kobayashi, J. Normand, 
 K. Raghavachari, A. Rendell, J. C. Burant, S. S. Iyengar, J. Tomasi, 
 M. Cossi, N. Rega, J. M. Millam, M. Klene, J. E. Knox, J. B. Cross, 
 V. Bakken, C. Adamo, J. Jaramillo, R. Gomperts, R. E. Stratmann, 
 O. Yazyev, A. J. Austin, R. Cammi, C. Pomelli, J. W. Ochterski, 
 R. L. Martin, K. Morokuma, V. G. Zakrzewski, G. A. Voth, 
 P. Salvador, J. J. Dannenberg, S. Dapprich, A. D. Daniels, 
 O. Farkas, J. B. Foresman, J. V. Ortiz, J. Cioslowski, 
 and D. J. Fox, Gaussian, Inc., Wallingford CT, 2013.
 
 ******************************************
 Gaussian 09:  EM64L-G09RevD.01 24-Apr-2013
                18-Aug-2021 
 ******************************************
 %mem=15gb
 %nproc=8
 Will use up to    8 processors via shared memory.
 ------------------------------------------------------------
 #b3lyp/gen pseudo=read opt freq=noraman scrf=(solvent=water)
 ------------------------------------------------------------
 1/14=-1,18=20,19=15,26=3,38=1/1,3;
 2/9=110,12=2,17=6,18=5,40=1/2;
 3/5=7,11=2,16=1,17=8,25=1,30=1,70=2201,71=1,72=1,74=-5/1,2,3;
 4//1;
 5/5=2,38=5,53=1/2;
 6/7=2,8=2,9=2,10=2,28=1/1;
 7//1,2,3,16;
 1/14=-1,18=20,19=15,26=3/3(2);
 2/9=110/2;
 99//99;
 2/9=110/2;
 3/5=7,6=1,11=2,16=1,17=8,25=1,30=1,70=2205,71=1,72=1,74=-5,82=7/1,2,3;
 4/5=5,16=3,69=1/1;
 5/5=2,38=5,53=1/2;
 7//1,2,3,16;
 1/14=-1,18=20,19=15,26=3/3(-5);
 2/9=110/2;
 6/7=2,8=2,9=2,10=2,19=2,28=1/1;
 99/9=1/99;
 ------------
 Estrutura 19
 ------------
 Symbolic Z-matrix:
 Charge = -2 Multiplicity = 1
 Pt                   -0.31955   0.33835   0. 
 Cl                   -0.31955   0.33835  -2.28 
 Cl                   -0.31955  -1.94165   0. 
 Cl                    1.96045   0.33835   0. 
 Cl                   -0.31955   0.33835   2.28 
 Br                   -0.31955   2.76835   0. 
 Br                   -2.74955   0.33835   0. 
 

 GradGradGradGradGradGradGradGradGradGradGradGradGradGradGradGradGradGrad
 Berny optimization.
 Initialization pass.
                           ----------------------------
                           !    Initial Parameters    !
                           ! (Angstroms and Degrees)  !
 --------------------------                            --------------------------
 ! Name  Definition              Value          Derivative Info.                !
 --------------------------------------------------------------------------------
 ! R1    R(1,2)                  2.28           estimate D2E/DX2                !
 ! R2    R(1,3)                  2.28           estimate D2E/DX2                !
 ! R3    R(1,4)                  2.28           estimate D2E/DX2                !
 ! R4    R(1,5)                  2.28           estimate D2E/DX2                !
 ! R5    R(1,6)                  2.43           estimate D2E/DX2                !
 ! R6    R(1,7)                  2.43           estimate D2E/DX2                !
 ! A1    A(2,1,3)               90.0            estimate D2E/DX2                !
 ! A2    A(2,1,4)               90.0            estimate D2E/DX2                !
 ! A3    A(2,1,6)               90.0            estimate D2E/DX2                !
 ! A4    A(2,1,7)               90.0            estimate D2E/DX2                !
 ! A5    A(3,1,4)               90.0            estimate D2E/DX2                !
 ! A6    A(3,1,5)               90.0            estimate D2E/DX2                !
 ! A7    A(3,1,7)               90.0            estimate D2E/DX2                !
 ! A8    A(4,1,5)               90.0            estimate D2E/DX2                !
 ! A9    A(4,1,6)               90.0            estimate D2E/DX2                !
 ! A10   A(5,1,6)               90.0            estimate D2E/DX2                !
 ! A11   A(5,1,7)               90.0            estimate D2E/DX2                !
 ! A12   A(6,1,7)               90.0            estimate D2E/DX2                !
 ! A13   L(2,1,5,3,-1)         180.0            estimate D2E/DX2                !
 ! A14   L(3,1,6,2,-1)         180.0            estimate D2E/DX2                !
 ! A15   L(4,1,7,2,-1)         180.0            estimate D2E/DX2                !
 ! A16   L(2,1,5,3,-2)         180.0            estimate D2E/DX2                !
 ! A17   L(3,1,6,2,-2)         180.0            estimate D2E/DX2                !
 ! A18   L(4,1,7,2,-2)         180.0            estimate D2E/DX2                !
 ! D1    D(2,1,4,3)            -90.0            estimate D2E/DX2                !
 ! D2    D(2,1,7,3)             90.0            estimate D2E/DX2                !
 ! D3    D(2,1,6,4)            -90.0            estimate D2E/DX2                !
 ! D4    D(2,1,7,6)            -90.0            estimate D2E/DX2                !
 ! D5    D(3,1,5,4)             90.0            estimate D2E/DX2                !
 ! D6    D(3,1,7,5)             90.0            estimate D2E/DX2                !
 ! D7    D(4,1,6,5)            -90.0            estimate D2E/DX2                !
 ! D8    D(5,1,7,6)             90.0            estimate D2E/DX2                !
 --------------------------------------------------------------------------------
 Trust Radius=3.00D-01 FncErr=1.00D-07 GrdErr=1.00D-06
 Number of steps in this run=     42 maximum allowed number of steps=    100.
 GradGradGradGradGradGradGradGradGradGradGradGradGradGradGradGradGradGrad

                          Input orientation:                          
 ---------------------------------------------------------------------
 Center     Atomic      Atomic             Coordinates (Angstroms)
 Number     Number       Type             X           Y           Z
 ---------------------------------------------------------------------
      1         78           0       -0.319549    0.338346    0.000000
      2         17           0       -0.319549    0.338346   -2.280000
      3         17           0       -0.319549   -1.941654    0.000000
      4         17           0        1.960451    0.338346    0.000000
      5         17           0       -0.319549    0.338346    2.280000
      6         35           0       -0.319549    2.768346    0.000000
      7         35           0       -2.749549    0.338346    0.000000
 ---------------------------------------------------------------------
                    Distance matrix (angstroms):
                    1          2          3          4          5
     1  Pt   0.000000
     2  Cl   2.280000   0.000000
     3  Cl   2.280000   3.224407   0.000000
     4  Cl   2.280000   3.224407   3.224407   0.000000
     5  Cl   2.280000   4.560000   3.224407   3.224407   0.000000
     6  Br   2.430000   3.332161   4.710000   3.332161   3.332161
     7  Br   2.430000   3.332161   3.332161   4.710000   3.332161
                    6          7
     6  Br   0.000000
     7  Br   3.436539   0.000000
 Stoichiometry    Br2Cl4Pt(2-)
 Framework group  C2V[C2(Pt),SGV(Br2Cl2),SGV'(Cl2)]
 Deg. of freedom     6
 Full point group                 C2V     NOp   4
 Largest Abelian subgroup         C2V     NOp   4
 Largest concise Abelian subgroup C2V     NOp   4
                         Standard orientation:                         
 ---------------------------------------------------------------------
 Center     Atomic      Atomic             Coordinates (Angstroms)
 Number     Number       Type             X           Y           Z
 ---------------------------------------------------------------------
      1         78           0        0.000000    0.000000    0.303074
      2         17           0       -2.280000    0.000000    0.303074
      3         17           0        0.000000    1.612203    1.915277
      4         17           0        0.000000   -1.612203    1.915277
      5         17           0        2.280000    0.000000    0.303074
      6         35           0        0.000000   -1.718269   -1.415196
      7         35           0        0.000000    1.718269   -1.415196
 ---------------------------------------------------------------------
 Rotational constants (GHZ):      0.5262224      0.4997068      0.4060530
 General basis read from cards:  (5D, 7F)
 ======================================================================================================
                                       Pseudopotential Parameters
 ======================================================================================================
  Center     Atomic      Valence      Angular      Power
  Number     Number     Electrons     Momentum     of R      Exponent        Coefficient   SO-Coeffient
 ======================================================================================================
    1         78           18
                                      G and up 
                                                     1      728.9394056       -0.16192680    0.00000000
                                                     2      320.6567800    -1320.28738520    0.00000000
                                                     2       52.8680174     -298.31781350    0.00000000
                                                     2       12.0280128      -87.58370650    0.00000000
                                                     2        3.5238913       -8.14932740    0.00000000
                                      S - G
                                                     0      409.4437358        2.73342180    0.00000000
                                                     1      274.5419231       59.70243290    0.00000000
                                                     2      127.5658570      891.45895500    0.00000000
                                                     2       32.9036631      368.44676560    0.00000000
                                                     2        5.0593880      238.02630900    0.00000000
                                                     2        4.1506556     -107.05564540    0.00000000
                                      P - G
                                                     0      466.1728892        1.88785680    0.00000000
                                                     1      120.7888259       76.01386290    0.00000000
                                                     2       36.4118791      343.55111160    0.00000000
                                                     2        5.6985408      119.49117860    0.00000000
                                      D - G
                                                     0      249.5650763        2.93436780    0.00000000
                                                     1      126.6678585       59.33065710    0.00000000
                                                     2       63.1430586      452.44451940    0.00000000
                                                     2       17.9059470      210.47694790    0.00000000
                                                     2        4.2239373       58.62541120    0.00000000
                                      F - G
                                                     0      121.8158799        3.95342530    0.00000000
                                                     1       60.8757030       53.85551820    0.00000000
                                                     2       31.4767147      247.43051330    0.00000000
                                                     2        9.8811751      127.81879760    0.00000000
                                                     2        2.7319874       15.37720460    0.00000000
    2         17
                                   No pseudopotential on this center.
    3         17
                                   No pseudopotential on this center.
    4         17
                                   No pseudopotential on this center.
    5         17
                                   No pseudopotential on this center.
    6         35
                                   No pseudopotential on this center.
    7         35
                                   No pseudopotential on this center.
 ======================================================================================================
 There are    65 symmetry adapted cartesian basis functions of A1  symmetry.
 There are    22 symmetry adapted cartesian basis functions of A2  symmetry.
 There are    34 symmetry adapted cartesian basis functions of B1  symmetry.
 There are    49 symmetry adapted cartesian basis functions of B2  symmetry.
 There are    58 symmetry adapted basis functions of A1  symmetry.
 There are    22 symmetry adapted basis functions of A2  symmetry.
 There are    33 symmetry adapted basis functions of B1  symmetry.
 There are    45 symmetry adapted basis functions of B2  symmetry.
   158 basis functions,   351 primitive gaussians,   170 cartesian basis functions
    79 alpha electrons       79 beta electrons
       nuclear repulsion energy      1718.4374325547 Hartrees.
 NAtoms=    7 NActive=    7 NUniq=    4 SFac= 3.06D+00 NAtFMM=   60 NAOKFM=F Big=F
 Integral buffers will be    131072 words long.
 Raffenetti 2 integral format.
 Two-electron integral symmetry is turned on.
 ------------------------------------------------------------------------------
 Polarizable Continuum Model (PCM)
 =================================
 Model                : PCM (using non-symmetric T matrix).
 Atomic radii         : UFF (Universal Force Field).
 Polarization charges : Total charges.
 Charge compensation  : None.
 Solution method      : On-the-fly selection.
 Cavity type          : Scaled VdW (van der Waals Surface) (Alpha=1.100).
 Cavity algorithm     : GePol (No added spheres)
                        Default sphere list used, NSphG=    7.
                        Lebedev-Laikov grids with approx.  5.0 points / Ang**2.
                        Smoothing algorithm: Karplus/York (Gamma=1.0000).
                        Polarization charges: spherical gaussians, with
                                              point-specific exponents (IZeta= 3).
                        Self-potential: point-specific (ISelfS= 7).
                        Self-field    : sphere-specific E.n sum rule (ISelfD= 2).
 1st derivatives      : Analytical E(r).r(x)/FMM algorithm (CHGder, D1EAlg=3).
                        Cavity 1st derivative terms included.
 Solvent              : Water, Eps=  78.355300 Eps(inf)=   1.777849
 ------------------------------------------------------------------------------
 Spheres list:
 ISph  on   Nord     Re0    Alpha      Xe            Ye            Ze
    1  Pt      1    1.3770  1.100      0.000000      0.000000      0.303074
    2  Cl      2    1.9735  1.100     -2.280000      0.000000      0.303074
    3  Cl      3    1.9735  1.100      0.000000      1.612203      1.915277
    4  Cl      4    1.9735  1.100      0.000000     -1.612203      1.915277
    5  Cl      5    1.9735  1.100      2.280000      0.000000      0.303074
    6  Br      6    2.0945  1.100      0.000000     -1.718269     -1.415196
    7  Br      7    2.0945  1.100      0.000000      1.718269     -1.415196
 ------------------------------------------------------------------------------
 One-electron integrals computed using PRISM.
   4 Symmetry operations used in ECPInt.
 ECPInt:  NShTT=    2080 NPrTT=   11209 LenC2=    1907 LenP2D=    7215.
 LDataN:  DoStor=T MaxTD1= 6 Len=  172
 NBasis=   158 RedAO= T EigKep=  7.64D-03  NBF=    58    22    33    45
 NBsUse=   158 1.00D-06 EigRej= -1.00D+00 NBFU=    58    22    33    45
 Defaulting to unpruned grid for atomic number  78.
 ExpMin= 2.90D-02 ExpMax= 1.13D+05 ExpMxC= 1.70D+04 IAcc=3 IRadAn=         5 AccDes= 0.00D+00
 Harris functional with IExCor=  402 and IRadAn=       5 diagonalized for initial guess.
 HarFok:  IExCor=  402 AccDes= 0.00D+00 IRadAn=         5 IDoV= 1 UseB2=F ITyADJ=14
 ICtDFT=  3500011 ScaDFX=  1.000000  1.000000  1.000000  1.000000
 Defaulting to unpruned grid for atomic number  78.
 Defaulting to unpruned grid for atomic number  78.
 Defaulting to unpruned grid for atomic number  78.
 Defaulting to unpruned grid for atomic number  78.
 Defaulting to unpruned grid for atomic number  78.
 Defaulting to unpruned grid for atomic number  78.
 Defaulting to unpruned grid for atomic number  78.
 Defaulting to unpruned grid for atomic number  78.
 FoFCou: FMM=F IPFlag=           0 FMFlag=      100000 FMFlg1=           0
         NFxFlg=           0 DoJE=T BraDBF=F KetDBF=T FulRan=T
         wScrn=  0.000000 ICntrl=     500 IOpCl=  0 I1Cent=   200000004 NGrid=           0
         NMat0=    1 NMatS0=      1 NMatT0=    0 NMatD0=    1 NMtDS0=    0 NMtDT0=    0
 Petite list used in FoFCou.
 Initial guess orbital symmetries:
       Occupied  (A1) (B2) (A1) (B1) (A1) (B2) (A1) (B2) (B2) (A1)
                 (B2) (B1) (A2) (A1) (B1) (A1) (A1) (B2) (A1) (B2)
                 (B1) (A1) (B2) (A1) (B2) (A1) (A2) (B1) (B2) (B1)
                 (A1) (A2) (B2) (A1) (B2) (A1) (B1) (A2) (A1) (B2)
                 (A1) (A1) (B2) (B1) (A2) (A1) (B2) (B1) (A2) (B2)
                 (A1) (B1) (A1) (B2) (A1) (B1) (A1) (B2) (A1) (B2)
                 (A1) (B1) (A2) (A1) (B2) (A1) (B1) (B2) (A2) (A1)
                 (B1) (B2) (A1) (B2) (A2) (B1) (A1) (B1) (A2)
       Virtual   (B2) (A1) (B2) (A1) (B1) (A1) (B1) (B2) (A1) (A1)
                 (A2) (A1) (B2) (B1) (A1) (B2) (A2) (B2) (B1) (A1)
                 (B2) (A2) (A1) (B1) (A1) (A2) (B2) (A1) (A1) (B2)
                 (B1) (A1) (B1) (B2) (A1) (B2) (B1) (A2) (B2) (A2)
                 (A1) (B1) (A1) (B1) (A2) (B2) (A1) (B1) (B2) (A2)
                 (A1) (B1) (B2) (B2) (A1) (A2) (A1) (B1) (B2) (A1)
                 (A1) (B1) (A2) (B2) (A1) (B1) (B2) (A1) (B1) (A2)
                 (B2) (A1) (B2) (A2) (A1) (B1) (A1) (B2) (A1)
 The electronic state of the initial guess is 1-A1.
 Keep R1 ints in memory in symmetry-blocked form, NReq=98968516.
 Requested convergence on RMS density matrix=1.00D-08 within 128 cycles.
 Requested convergence on MAX density matrix=1.00D-06.
 Requested convergence on             energy=1.00D-06.
 No special actions if energy rises.
 Defaulting to unpruned grid for atomic number  78.
 Defaulting to unpruned grid for atomic number  78.
 Defaulting to unpruned grid for atomic number  78.
 Defaulting to unpruned grid for atomic number  78.
 Defaulting to unpruned grid for atomic number  78.
 Defaulting to unpruned grid for atomic number  78.
 Defaulting to unpruned grid for atomic number  78.
 Defaulting to unpruned grid for atomic number  78.
 Inv3:  Mode=1 IEnd=     5164032.
 Iteration    1 A*A^-1 deviation from unit magnitude is 5.55D-15 for    563.
 Iteration    1 A*A^-1 deviation from orthogonality  is 6.23D-15 for   1179    682.
 Iteration    1 A^-1*A deviation from unit magnitude is 5.77D-15 for    990.
 Iteration    1 A^-1*A deviation from orthogonality  is 1.60D-15 for   1269   1200.
 EnCoef did   100 forward-backward iterations
 Error on total polarization charges =  0.01898
 SCF Done:  E(RB3LYP) =  -7107.64299259     A.U. after   13 cycles
            NFock= 13  Conv=0.41D-08     -V/T= 2.0130

 **********************************************************************

            Population analysis using the SCF density.

 **********************************************************************

 Orbital symmetries:
       Occupied  (A1) (B2) (A1) (B2) (B1) (A1) (A1) (B2) (B2) (A1)
                 (B2) (B1) (A2) (A1) (A1) (B2) (B1) (A1) (A1) (B2)
                 (B2) (A1) (B1) (A1) (B1) (B2) (A2) (A1) (B2) (A1)
                 (A2) (B1) (B2) (A1) (B1) (A2) (B2) (A1) (A1) (A1)
                 (B2) (B1) (A2) (A1) (B2) (A1) (B2) (A2) (B1) (B1)
                 (A1) (B2) (A1) (A1) (B2) (B1) (A1) (B2) (A1) (B2)
                 (A1) (B1) (A2) (A1) (B1) (B2) (A1) (B2) (A1) (A2)
                 (B1) (B2) (A1) (B1) (A2) (A1) (B1) (A2) (B2)
       Virtual   (B2) (A1) (A1) (B2) (B1) (A1) (B1) (A1) (B2) (A1)
                 (A2) (B1) (A1) (B2) (A1) (B2) (A1) (A2) (B2) (B1)
                 (B2) (A1) (A2) (A1) (B1) (A2) (B2) (A1) (A1) (B2)
                 (A1) (B1) (B1) (B2) (A1) (B1) (B2) (A2) (B2) (A1)
                 (A2) (A1) (B1) (B2) (B1) (A2) (A1) (B1) (B2) (A2)
                 (A1) (B1) (B2) (B2) (A1) (A2) (A1) (B1) (B2) (A1)
                 (A1) (B1) (A2) (B2) (A1) (B1) (B2) (A1) (B1) (A2)
                 (B2) (A1) (B2) (A2) (A1) (B1) (A1) (B2) (A1)
 The electronic state is 1-A1.
 Alpha  occ. eigenvalues -- -482.74121-482.74120-101.44415-101.44407-101.44401
 Alpha  occ. eigenvalues -- -101.44397 -62.42283 -62.42282 -56.25467 -56.25466
 Alpha  occ. eigenvalues --  -56.25182 -56.25182 -56.25181 -56.25180  -9.39760
 Alpha  occ. eigenvalues --   -9.39757  -9.39747  -9.39744  -8.64049  -8.64049
 Alpha  occ. eigenvalues --   -7.16560  -7.16558  -7.16545  -7.16543  -7.15720
 Alpha  occ. eigenvalues --   -7.15720  -7.15719  -7.15718  -7.15708  -7.15708
 Alpha  occ. eigenvalues --   -7.15707  -7.15707  -6.47229  -6.47229  -6.46187
 Alpha  occ. eigenvalues --   -6.46187  -6.46186  -6.46186  -4.00882  -2.58685
 Alpha  occ. eigenvalues --   -2.58685  -2.58390  -2.58389  -2.58388  -2.58388
 Alpha  occ. eigenvalues --   -2.57570  -2.57570  -2.57569  -2.57569  -2.22248
 Alpha  occ. eigenvalues --   -2.22099  -2.22097  -0.77974  -0.75259  -0.75113
 Alpha  occ. eigenvalues --   -0.74820  -0.72097  -0.71535  -0.41682  -0.41097
 Alpha  occ. eigenvalues --   -0.39969  -0.39837  -0.39833  -0.39464  -0.32425
 Alpha  occ. eigenvalues --   -0.32228  -0.32214  -0.26532  -0.26444  -0.26078
 Alpha  occ. eigenvalues --   -0.26041  -0.25629  -0.25500  -0.24413  -0.24410
 Alpha  occ. eigenvalues --   -0.24388  -0.23537  -0.23472  -0.23006
 Alpha virt. eigenvalues --   -0.08138  -0.07517   0.05713   0.05716   0.05913
 Alpha virt. eigenvalues --    0.13126   0.25784   0.25803   0.25809   0.36638
 Alpha virt. eigenvalues --    0.37236   0.37737   0.40570   0.45166   0.49452
 Alpha virt. eigenvalues --    0.49645   0.56002   0.57116   0.57218   0.57304
 Alpha virt. eigenvalues --    0.58740   0.61187   0.61346   0.62596   0.63912
 Alpha virt. eigenvalues --    0.67754   0.68685   0.68775   0.69254   0.69409
 Alpha virt. eigenvalues --    0.71195   0.72079   0.73668   0.77515   0.77876
 Alpha virt. eigenvalues --    0.79346   0.79349   0.79953   0.80680   0.81306
 Alpha virt. eigenvalues --    0.82116   0.82733   0.82857   0.83055   0.83139
 Alpha virt. eigenvalues --    0.83164   0.84666   0.84987   0.88211   0.91416
 Alpha virt. eigenvalues --    0.93976   1.00156   1.02748   1.06249   1.06754
 Alpha virt. eigenvalues --    1.06932   1.12139   1.12565   1.15719   1.16083
 Alpha virt. eigenvalues --    1.22058   1.24621   1.24634   1.27740   1.40977
 Alpha virt. eigenvalues --    1.46254   1.51507   1.53651   3.45354   3.45772
 Alpha virt. eigenvalues --    3.47352   3.47677   3.52623   3.52833   3.59972
 Alpha virt. eigenvalues --    3.64781   3.69700   3.76986   6.34125
          Condensed to atoms (all electrons):
               1          2          3          4          5          6
     1  Pt  17.354551   0.217913   0.204757   0.204757   0.217913   0.187706
     2  Cl   0.217913  17.125073  -0.018099  -0.018099  -0.001889  -0.021427
     3  Cl   0.204757  -0.018099  17.137210  -0.018934  -0.018099  -0.003277
     4  Cl   0.204757  -0.018099  -0.018934  17.137210  -0.018099  -0.022495
     5  Cl   0.217913  -0.001889  -0.018099  -0.018099  17.125073  -0.021427
     6  Br   0.187706  -0.021427  -0.003277  -0.022495  -0.021427  35.096769
     7  Br   0.187706  -0.021427  -0.022495  -0.003277  -0.021427  -0.026609
               7
     1  Pt   0.187706
     2  Cl  -0.021427
     3  Cl  -0.022495
     4  Cl  -0.003277
     5  Cl  -0.021427
     6  Br  -0.026609
     7  Br  35.096769
 Mulliken charges:
               1
     1  Pt  -0.575303
     2  Cl  -0.262044
     3  Cl  -0.261063
     4  Cl  -0.261063
     5  Cl  -0.262044
     6  Br  -0.189241
     7  Br  -0.189241
 Sum of Mulliken charges =  -2.00000
 Mulliken charges with hydrogens summed into heavy atoms:
               1
     1  Pt  -0.575303
     2  Cl  -0.262044
     3  Cl  -0.261063
     4  Cl  -0.261063
     5  Cl  -0.262044
     6  Br  -0.189241
     7  Br  -0.189241
 Electronic spatial extent (au):  <R**2>=           2955.1757
 Charge=             -2.0000 electrons
 Dipole moment (field-independent basis, Debye):
    X=              0.0000    Y=              0.0000    Z=             -2.5928  Tot=              2.5928
 Quadrupole moment (field-independent basis, Debye-Ang):
   XX=           -137.0988   YY=           -137.7893   ZZ=           -138.4321
   XY=              0.0000   XZ=              0.0000   YZ=              0.0000
 Traceless Quadrupole moment (field-independent basis, Debye-Ang):
   XX=              0.6746   YY=             -0.0159   ZZ=             -0.6587
   XY=              0.0000   XZ=              0.0000   YZ=              0.0000
 Octapole moment (field-independent basis, Debye-Ang**2):
  XXX=              0.0000  YYY=              0.0000  ZZZ=            -53.0614  XYY=              0.0000
  XXY=              0.0000  XXZ=            -17.3243  XZZ=              0.0000  YZZ=              0.0000
  YYZ=            -17.7265  XYZ=              0.0000
 Hexadecapole moment (field-independent basis, Debye-Ang**3):
 XXXX=          -1051.6805 YYYY=          -1299.6672 ZZZZ=          -1287.6242 XXXY=              0.0000
 XXXZ=              0.0000 YYYX=              0.0000 YYYZ=              0.0000 ZZZX=              0.0000
 ZZZY=              0.0000 XXYY=           -380.5134 XXZZ=           -378.4291 YYZZ=           -443.4011
 XXYZ=              0.0000 YYXZ=              0.0000 ZZXY=              0.0000
 N-N= 1.718437432555D+03 E-N=-2.041666669802D+04  KE= 7.016371283731D+03
 Symmetry A1   KE= 3.037090582117D+03
 Symmetry A2   KE= 4.718310118433D+02
 Symmetry B1   KE= 8.451836427134D+02
 Symmetry B2   KE= 2.662266047058D+03
   4 Symmetry operations used in ECPInt.
 ECPInt:  NShTT=    2080 NPrTT=   11209 LenC2=    1907 LenP2D=    7215.
 LDataN:  DoStor=T MaxTD1= 7 Len=  274
 D1PCM: PCM CHGder 1st derivatives, ID1Alg=3 FixD1E=F DoIter=F DoCFld=F I1PDM=0.
 Calling FoFJK, ICntrl=      2127 FMM=F ISym2X=1 I1Cent= 0 IOpClX= 0 NMat=1 NMatS=1 NMatT=0.
 Defaulting to unpruned grid for atomic number  78.
 Defaulting to unpruned grid for atomic number  78.
 Defaulting to unpruned grid for atomic number  78.
 Defaulting to unpruned grid for atomic number  78.
 Defaulting to unpruned grid for atomic number  78.
 Defaulting to unpruned grid for atomic number  78.
 Defaulting to unpruned grid for atomic number  78.
 Defaulting to unpruned grid for atomic number  78.
 ***** Axes restored to original set *****
 -------------------------------------------------------------------
 Center     Atomic                   Forces (Hartrees/Bohr)
 Number     Number              X              Y              Z
 -------------------------------------------------------------------
      1       78          -0.010695297    0.010695297    0.000000000
      2       17           0.000375014   -0.000375014   -0.042500016
      3       17           0.000140852   -0.043604218    0.000000000
      4       17           0.043604218   -0.000140852    0.000000000
      5       17           0.000375014   -0.000375014    0.042500016
      6       35           0.000169114    0.033968915    0.000000000
      7       35          -0.033968915   -0.000169114    0.000000000
 -------------------------------------------------------------------
 Cartesian Forces:  Max     0.043604218 RMS     0.021769759

 GradGradGradGradGradGradGradGradGradGradGradGradGradGradGradGradGradGrad
 Berny optimization.
 FormGI is forming the generalized inverse of G from B-inverse, IUseBI=4.
 Internal  Forces:  Max     0.043604218 RMS     0.017433100
 Search for a local minimum.
 Step number   1 out of a maximum of   42
 All quantities printed in internal units (Hartrees-Bohrs-Radians)
 Mixed Optimization -- RFO/linear search
 Second derivative matrix not updated -- first step.
 ITU=  0
     Eigenvalues ---    0.07124   0.08487   0.09380   0.09782   0.10138
     Eigenvalues ---    0.11714   0.12615   0.19389   0.19509   0.19509
     Eigenvalues ---    0.21640   0.22001   0.22001   0.22001   0.22001
 RFO step:  Lambda=-3.85702779D-02 EMin= 7.12382554D-02
 Linear search not attempted -- first point.
 Maximum step size (   0.300) exceeded in Quadratic search.
    -- Step size scaled by   0.766
 Iteration  1 RMS(Cart)=  0.05296295 RMS(Int)=  0.00004358
 Iteration  2 RMS(Cart)=  0.00005849 RMS(Int)=  0.00000122
 Iteration  3 RMS(Cart)=  0.00000000 RMS(Int)=  0.00000122
 ClnCor:  largest displacement from symmetrization is 3.89D-04 for atom     2.
 Variable       Old X    -DE/DX   Delta X   Delta X   Delta X     New X
                                 (Linear)    (Quad)   (Total)
    R1        4.30858   0.04250   0.00000   0.12595   0.12600   4.43458
    R2        4.30858   0.04360   0.00000   0.12922   0.12931   4.43789
    R3        4.30858   0.04360   0.00000   0.12922   0.12931   4.43789
    R4        4.30858   0.04250   0.00000   0.12595   0.12600   4.43458
    R5        4.59203   0.03397   0.00000   0.11140   0.11131   4.70335
    R6        4.59203   0.03397   0.00000   0.11140   0.11131   4.70335
    A1        1.57080  -0.00021   0.00000  -0.00154  -0.00169   1.56911
    A2        1.57080  -0.00032   0.00000  -0.00177  -0.00169   1.56911
    A3        1.57080   0.00024   0.00000   0.00162   0.00169   1.57248
    A4        1.57080   0.00032   0.00000   0.00177   0.00169   1.57248
    A5        1.57080  -0.00020   0.00000  -0.00136  -0.00132   1.56947
    A6        1.57080  -0.00030   0.00000  -0.00172  -0.00169   1.56911
    A7        1.57080  -0.00009   0.00000  -0.00016  -0.00016   1.57063
    A8        1.57080  -0.00032   0.00000  -0.00177  -0.00169   1.56911
    A9        1.57080  -0.00009   0.00000  -0.00016  -0.00016   1.57063
   A10        1.57080   0.00026   0.00000   0.00163   0.00169   1.57248
   A11        1.57080   0.00032   0.00000   0.00177   0.00169   1.57248
   A12        1.57080   0.00039   0.00000   0.00169   0.00165   1.57244
   A13        3.14159  -0.00050   0.00000  -0.00326  -0.00338   3.13822
   A14        3.14159   0.00003   0.00000   0.00008   0.00000   3.14159
   A15        3.14159   0.00000   0.00000   0.00000   0.00000   3.14159
   A16        3.14159  -0.00065   0.00000  -0.00354  -0.00337   3.13822
   A17        3.14159   0.00030   0.00000   0.00152   0.00149   3.14308
   A18        3.14159  -0.00030   0.00000  -0.00152  -0.00149   3.14011
    D1       -1.57080   0.00021   0.00000   0.00154   0.00169  -1.56911
    D2        1.57080  -0.00021   0.00000  -0.00154  -0.00169   1.56911
    D3       -1.57080   0.00032   0.00000   0.00177   0.00169  -1.56911
    D4       -1.57080  -0.00024   0.00000  -0.00162  -0.00169  -1.57249
    D5        1.57080  -0.00020   0.00000  -0.00136  -0.00132   1.56948
    D6        1.57080  -0.00030   0.00000  -0.00172  -0.00169   1.56911
    D7       -1.57080   0.00032   0.00000   0.00177   0.00169  -1.56911
    D8        1.57080   0.00026   0.00000   0.00163   0.00169   1.57249
         Item               Value     Threshold  Converged?
 Maximum Force            0.043604     0.000450     NO 
 RMS     Force            0.017433     0.000300     NO 
 Maximum Displacement     0.125992     0.001800     NO 
 RMS     Displacement     0.052971     0.001200     NO 
 Predicted change in Energy=-1.997006D-02
 GradGradGradGradGradGradGradGradGradGradGradGradGradGradGradGradGradGrad

                          Input orientation:                          
 ---------------------------------------------------------------------
 Center     Atomic      Atomic             Coordinates (Angstroms)
 Number     Number       Type             X           Y           Z
 ---------------------------------------------------------------------
      1         78           0       -0.322564    0.341361    0.000000
      2         17           0       -0.318604    0.337401   -2.346672
      3         17           0       -0.321010   -2.007067    0.000000
      4         17           0        2.025864    0.339807    0.000000
      5         17           0       -0.318604    0.337401    2.346672
      6         35           0       -0.320512    2.830264    0.000000
      7         35           0       -2.811467    0.339309    0.000000
 ---------------------------------------------------------------------
                    Distance matrix (angstroms):
                    1          2          3          4          5
     1  Pt   0.000000
     2  Cl   2.346679   0.000000
     3  Cl   2.348428   3.317138   0.000000
     4  Cl   2.348428   3.317138   3.318982   0.000000
     5  Cl   2.346679   4.693344   3.317138   3.317138   0.000000
     6  Br   2.488905   3.423630   4.837332   3.421675   3.423630
     7  Br   2.488905   3.423630   3.421675   4.837332   3.423630
                    6          7
     6  Br   0.000000
     7  Br   3.522743   0.000000
 Stoichiometry    Br2Cl4Pt(2-)
 Framework group  C2V[C2(Pt),SGV(Br2Cl2),SGV'(Cl2)]
 Deg. of freedom     6
 Full point group                 C2V     NOp   4
 Largest Abelian subgroup         C2V     NOp   4
 Largest concise Abelian subgroup C2V     NOp   4
                         Standard orientation:                         
 ---------------------------------------------------------------------
 Center     Atomic      Atomic             Coordinates (Angstroms)
 Number     Number       Type             X           Y           Z
 ---------------------------------------------------------------------
      1         78           0        0.000000    0.000000    0.307431
      2         17           0       -2.346672    0.000000    0.313031
      3         17           0        0.000000    1.659491    1.969119
      4         17           0        0.000000   -1.659491    1.969119
      5         17           0        2.346672    0.000000    0.313031
      6         35           0        0.000000   -1.761371   -1.451039
      7         35           0        0.000000    1.761371   -1.451039
 ---------------------------------------------------------------------
 Rotational constants (GHZ):      0.4985286      0.4734597      0.3855258
 Basis read from rwf:  (5D, 7F)
 Pseudo-potential data read from rwf file.
 There are    65 symmetry adapted cartesian basis functions of A1  symmetry.
 There are    22 symmetry adapted cartesian basis functions of A2  symmetry.
 There are    34 symmetry adapted cartesian basis functions of B1  symmetry.
 There are    49 symmetry adapted cartesian basis functions of B2  symmetry.
 There are    58 symmetry adapted basis functions of A1  symmetry.
 There are    22 symmetry adapted basis functions of A2  symmetry.
 There are    33 symmetry adapted basis functions of B1  symmetry.
 There are    45 symmetry adapted basis functions of B2  symmetry.
   158 basis functions,   351 primitive gaussians,   170 cartesian basis functions
    79 alpha electrons       79 beta electrons
       nuclear repulsion energy      1672.9834966827 Hartrees.
 NAtoms=    7 NActive=    7 NUniq=    4 SFac= 3.06D+00 NAtFMM=   60 NAOKFM=F Big=F
 Integral buffers will be    131072 words long.
 Raffenetti 2 integral format.
 Two-electron integral symmetry is turned on.
 ------------------------------------------------------------------------------
 Polarizable Continuum Model (PCM)
 =================================
 Model                : PCM (using non-symmetric T matrix).
 Atomic radii         : UFF (Universal Force Field).
 Polarization charges : Total charges.
 Charge compensation  : None.
 Solution method      : On-the-fly selection.
 Cavity type          : Scaled VdW (van der Waals Surface) (Alpha=1.100).
 Cavity algorithm     : GePol (No added spheres)
                        Default sphere list used, NSphG=    7.
                        Lebedev-Laikov grids with approx.  5.0 points / Ang**2.
                        Smoothing algorithm: Karplus/York (Gamma=1.0000).
                        Polarization charges: spherical gaussians, with
                                              point-specific exponents (IZeta= 3).
                        Self-potential: point-specific (ISelfS= 7).
                        Self-field    : sphere-specific E.n sum rule (ISelfD= 2).
 1st derivatives      : Analytical E(r).r(x)/FMM algorithm (CHGder, D1EAlg=3).
                        Cavity 1st derivative terms included.
 Solvent              : Water, Eps=  78.355300 Eps(inf)=   1.777849
 ------------------------------------------------------------------------------
 Spheres list:
 ISph  on   Nord     Re0    Alpha      Xe            Ye            Ze
    1  Pt      1    1.3770  1.100      0.000000      0.000000      0.307431
    2  Cl      2    1.9735  1.100     -2.346672      0.000000      0.313031
    3  Cl      3    1.9735  1.100      0.000000      1.659491      1.969119
    4  Cl      4    1.9735  1.100      0.000000     -1.659491      1.969119
    5  Cl      5    1.9735  1.100      2.346672      0.000000      0.313031
    6  Br      6    2.0945  1.100      0.000000     -1.761371     -1.451039
    7  Br      7    2.0945  1.100      0.000000      1.761371     -1.451039
 ------------------------------------------------------------------------------
 One-electron integrals computed using PRISM.
   4 Symmetry operations used in ECPInt.
 ECPInt:  NShTT=    2080 NPrTT=   11209 LenC2=    1901 LenP2D=    7145.
 LDataN:  DoStor=T MaxTD1= 6 Len=  172
 NBasis=   158 RedAO= T EigKep=  8.60D-03  NBF=    58    22    33    45
 NBsUse=   158 1.00D-06 EigRej= -1.00D+00 NBFU=    58    22    33    45
 Defaulting to unpruned grid for atomic number  78.
 Initial guess from the checkpoint file:  "/home/scr/diego/Gau-2746.chk"
 B after Tr=     0.000000    0.000000    0.000000
         Rot=    1.000000    0.000000    0.000000    0.000000 Ang=   0.00 deg.
 Initial guess orbital symmetries:
       Occupied  (A1) (B2) (A1) (B2) (B1) (A1) (A1) (B2) (B2) (A1)
                 (B2) (B1) (A2) (A1) (A1) (B2) (B1) (A1) (A1) (B2)
                 (B2) (A1) (B1) (A1) (B1) (B2) (A2) (A1) (B2) (A1)
                 (A2) (B1) (B2) (A1) (B1) (A2) (B2) (A1) (A1) (A1)
                 (B2) (B1) (A2) (A1) (B2) (A1) (B2) (A2) (B1) (B1)
                 (A1) (B2) (A1) (A1) (B2) (B1) (A1) (B2) (A1) (B2)
                 (A1) (B1) (A2) (A1) (B1) (B2) (A1) (B2) (A1) (A2)
                 (B1) (B2) (A1) (B1) (A2) (A1) (B1) (A2) (B2)
       Virtual   (A1) (A1) (A1) (A1) (A1) (A1) (A1) (A1) (A1) (A1)
                 (A1) (A1) (A1) (A1) (A1) (A1) (A1) (A1) (A1) (A1)
                 (A1) (A1) (A1) (A1) (A1) (A1) (A1) (A1) (A2) (A2)
                 (A2) (A2) (A2) (A2) (A2) (A2) (A2) (A2) (A2) (A2)
                 (B1) (B1) (B1) (B1) (B1) (B1) (B1) (B1) (B1) (B1)
                 (B1) (B1) (B1) (B1) (B1) (B1) (B1) (B2) (B2) (B2)
                 (B2) (B2) (B2) (B2) (B2) (B2) (B2) (B2) (B2) (B2)
                 (B2) (B2) (B2) (B2) (B2) (B2) (B2) (B2) (B2)
 ExpMin= 2.90D-02 ExpMax= 1.13D+05 ExpMxC= 1.70D+04 IAcc=3 IRadAn=         5 AccDes= 0.00D+00
 Harris functional with IExCor=  402 and IRadAn=       5 diagonalized for initial guess.
 HarFok:  IExCor=  402 AccDes= 0.00D+00 IRadAn=         5 IDoV= 1 UseB2=F ITyADJ=14
 ICtDFT=  3500011 ScaDFX=  1.000000  1.000000  1.000000  1.000000
 Defaulting to unpruned grid for atomic number  78.
 Defaulting to unpruned grid for atomic number  78.
 Defaulting to unpruned grid for atomic number  78.
 Defaulting to unpruned grid for atomic number  78.
 Defaulting to unpruned grid for atomic number  78.
 Defaulting to unpruned grid for atomic number  78.
 Defaulting to unpruned grid for atomic number  78.
 Defaulting to unpruned grid for atomic number  78.
 FoFCou: FMM=F IPFlag=           0 FMFlag=      100000 FMFlg1=           0
         NFxFlg=           0 DoJE=T BraDBF=F KetDBF=T FulRan=T
         wScrn=  0.000000 ICntrl=     500 IOpCl=  0 I1Cent=   200000004 NGrid=           0
         NMat0=    1 NMatS0=      1 NMatT0=    0 NMatD0=    1 NMtDS0=    0 NMtDT0=    0
 Petite list used in FoFCou.
 Keep R1 ints in memory in symmetry-blocked form, NReq=98968516.
 Requested convergence on RMS density matrix=1.00D-08 within 128 cycles.
 Requested convergence on MAX density matrix=1.00D-06.
 Requested convergence on             energy=1.00D-06.
 No special actions if energy rises.
 Defaulting to unpruned grid for atomic number  78.
 Defaulting to unpruned grid for atomic number  78.
 Defaulting to unpruned grid for atomic number  78.
 Defaulting to unpruned grid for atomic number  78.
 Defaulting to unpruned grid for atomic number  78.
 Defaulting to unpruned grid for atomic number  78.
 Defaulting to unpruned grid for atomic number  78.
 Defaulting to unpruned grid for atomic number  78.
 Inv3:  Mode=1 IEnd=     5451312.
 Iteration    1 A*A^-1 deviation from unit magnitude is 6.66D-15 for     95.
 Iteration    1 A*A^-1 deviation from orthogonality  is 4.45D-15 for    926    505.
 Iteration    1 A^-1*A deviation from unit magnitude is 6.44D-15 for    994.
 Iteration    1 A^-1*A deviation from orthogonality  is 1.51D-15 for    628    584.
 Error on total polarization charges =  0.01818
 SCF Done:  E(RB3LYP) =  -7107.66399166     A.U. after   10 cycles
            NFock= 10  Conv=0.44D-08     -V/T= 2.0131
   4 Symmetry operations used in ECPInt.
 ECPInt:  NShTT=    2080 NPrTT=   11209 LenC2=    1901 LenP2D=    7145.
 LDataN:  DoStor=T MaxTD1= 7 Len=  274
 D1PCM: PCM CHGder 1st derivatives, ID1Alg=3 FixD1E=F DoIter=F DoCFld=F I1PDM=0.
 Calling FoFJK, ICntrl=      2127 FMM=F ISym2X=1 I1Cent= 0 IOpClX= 0 NMat=1 NMatS=1 NMatT=0.
 Defaulting to unpruned grid for atomic number  78.
 Defaulting to unpruned grid for atomic number  78.
 Defaulting to unpruned grid for atomic number  78.
 Defaulting to unpruned grid for atomic number  78.
 Defaulting to unpruned grid for atomic number  78.
 Defaulting to unpruned grid for atomic number  78.
 Defaulting to unpruned grid for atomic number  78.
 Defaulting to unpruned grid for atomic number  78.
 ***** Axes restored to original set *****
 -------------------------------------------------------------------
 Center     Atomic                   Forces (Hartrees/Bohr)
 Number     Number              X              Y              Z
 -------------------------------------------------------------------
      1       78          -0.004097680    0.004097680    0.000000000
      2       17          -0.000250933    0.000250933   -0.018543321
      3       17           0.000141194   -0.019777156    0.000000000
      4       17           0.019777156   -0.000141194    0.000000000
      5       17          -0.000250933    0.000250933    0.018543321
      6       35          -0.000051888    0.015266916    0.000000000
      7       35          -0.015266916    0.000051888    0.000000000
 -------------------------------------------------------------------
 Cartesian Forces:  Max     0.019777156 RMS     0.009685575

 GradGradGradGradGradGradGradGradGradGradGradGradGradGradGradGradGradGrad
 Berny optimization.
 Using GEDIIS/GDIIS optimizer.
 FormGI is forming the generalized inverse of G from B-inverse, IUseBI=4.
 Internal  Forces:  Max     0.019777245 RMS     0.007780874
 Search for a local minimum.
 Step number   2 out of a maximum of   42
 All quantities printed in internal units (Hartrees-Bohrs-Radians)
 Mixed Optimization -- RFO/linear search
 Update second derivatives using D2CorX and points    1    2
 DE= -2.10D-02 DEPred=-2.00D-02 R= 1.05D+00
 TightC=F SS=  1.41D+00  RLast= 3.00D-01 DXNew= 5.0454D-01 9.0027D-01
 Trust test= 1.05D+00 RLast= 3.00D-01 DXMaxT set to 5.05D-01
 ITU=  1  0
 Use linear search instead of GDIIS.
     Eigenvalues ---    0.07125   0.08487   0.09380   0.09783   0.10134
     Eigenvalues ---    0.11714   0.12615   0.17871   0.19389   0.19509
     Eigenvalues ---    0.20486   0.21650   0.22001   0.22001   0.22024
 RFO step:  Lambda=-1.39620295D-04 EMin= 7.12458746D-02
 Quartic linear search produced a step of  1.09301.
 Iteration  1 RMS(Cart)=  0.05897369 RMS(Int)=  0.00014874
 Iteration  2 RMS(Cart)=  0.00024524 RMS(Int)=  0.00000713
 Iteration  3 RMS(Cart)=  0.00000003 RMS(Int)=  0.00000713
 ClnCor:  largest displacement from symmetrization is 9.01D-04 for atom     2.
 Variable       Old X    -DE/DX   Delta X   Delta X   Delta X     New X
                                 (Linear)    (Quad)   (Total)
    R1        4.43458   0.01854   0.13772  -0.00411   0.13348   4.56806
    R2        4.43789   0.01978   0.14134   0.00295   0.14408   4.58197
    R3        4.43789   0.01978   0.14134   0.00295   0.14408   4.58197
    R4        4.43458   0.01854   0.13772  -0.00411   0.13348   4.56806
    R5        4.70335   0.01527   0.12167   0.00393   0.12580   4.82915
    R6        4.70335   0.01527   0.12167   0.00393   0.12580   4.82915
    A1        1.56911   0.00016  -0.00185   0.00724   0.00574   1.57485
    A2        1.56911   0.00025  -0.00185   0.00777   0.00574   1.57485
    A3        1.57248  -0.00019   0.00184  -0.00744  -0.00573   1.56675
    A4        1.57248  -0.00025   0.00184  -0.00776  -0.00573   1.56675
    A5        1.56947  -0.00019  -0.00145  -0.00092  -0.00247   1.56701
    A6        1.56911   0.00023  -0.00185   0.00766   0.00574   1.57485
    A7        1.57063   0.00017  -0.00018   0.00205   0.00189   1.57252
    A8        1.56911   0.00025  -0.00185   0.00777   0.00574   1.57485
    A9        1.57063   0.00017  -0.00018   0.00205   0.00189   1.57252
   A10        1.57248  -0.00020   0.00184  -0.00744  -0.00573   1.56675
   A11        1.57248  -0.00025   0.00184  -0.00775  -0.00573   1.56675
   A12        1.57244  -0.00015   0.00180  -0.00319  -0.00131   1.57114
   A13        3.13822   0.00039  -0.00369   0.01490   0.01149   3.14970
   A14        3.14159  -0.00003   0.00000  -0.00020   0.00001   3.14160
   A15        3.14159   0.00000   0.00000   0.00001   0.00001   3.14160
   A16        3.13822   0.00050  -0.00369   0.01552   0.01145   3.14967
   A17        3.14308   0.00002   0.00162  -0.00114   0.00058   3.14366
   A18        3.14011  -0.00002  -0.00162   0.00114  -0.00058   3.13953
    D1       -1.56911  -0.00016   0.00184  -0.00723  -0.00573  -1.57484
    D2        1.56911   0.00016  -0.00185   0.00725   0.00574   1.57484
    D3       -1.56911  -0.00025   0.00185  -0.00777  -0.00574  -1.57484
    D4       -1.57249   0.00019  -0.00185   0.00746   0.00574  -1.56675
    D5        1.56948  -0.00019  -0.00144  -0.00094  -0.00245   1.56702
    D6        1.56911   0.00023  -0.00185   0.00767   0.00574   1.57484
    D7       -1.56911  -0.00025   0.00185  -0.00777  -0.00574  -1.57484
    D8        1.57249  -0.00020   0.00185  -0.00746  -0.00574   1.56675
         Item               Value     Threshold  Converged?
 Maximum Force            0.019777     0.000450     NO 
 RMS     Force            0.007781     0.000300     NO 
 Maximum Displacement     0.148533     0.001800     NO 
 RMS     Displacement     0.058969     0.001200     NO 
 Predicted change in Energy=-4.673166D-03
 GradGradGradGradGradGradGradGradGradGradGradGradGradGradGradGradGradGrad

                          Input orientation:                          
 ---------------------------------------------------------------------
 Center     Atomic      Atomic             Coordinates (Angstroms)
 Number     Number       Type             X           Y           Z
 ---------------------------------------------------------------------
      1         78           0       -0.320205    0.339002    0.000000
      2         17           0       -0.329988    0.348784   -2.417271
      3         17           0       -0.315609   -2.085667    0.000000
      4         17           0        2.104464    0.334406    0.000000
      5         17           0       -0.329988    0.348784    2.417271
      6         35           0       -0.319768    2.894477    0.000000
      7         35           0       -2.875680    0.338565    0.000000
 ---------------------------------------------------------------------
                    Distance matrix (angstroms):
                    1          2          3          4          5
     1  Pt   0.000000
     2  Cl   2.417311   0.000000
     3  Cl   2.424673   3.430738   0.000000
     4  Cl   2.424673   3.430738   3.422500   0.000000
     5  Cl   2.417311   4.834543   3.430738   3.430738   0.000000
     6  Br   2.555476   3.510535   4.980146   3.525744   3.510535
     7  Br   2.555476   3.510535   3.525744   4.980146   3.510535
                    6          7
     6  Br   0.000000
     7  Br   3.614607   0.000000
 Stoichiometry    Br2Cl4Pt(2-)
 Framework group  C2V[C2(Pt),SGV(Br2Cl2),SGV'(Cl2)]
 Deg. of freedom     6
 Full point group                 C2V     NOp   4
 Largest Abelian subgroup         C2V     NOp   4
 Largest concise Abelian subgroup C2V     NOp   4
                         Standard orientation:                         
 ---------------------------------------------------------------------
 Center     Atomic      Atomic             Coordinates (Angstroms)
 Number     Number       Type             X           Y           Z
 ---------------------------------------------------------------------
      1         78           0        0.000000    0.000000    0.317291
      2         17           0       -2.417271    0.000000    0.303456
      3         17           0        0.000000    1.711250    2.035041
      4         17           0        0.000000   -1.711250    2.035041
      5         17           0        2.417271    0.000000    0.303456
      6         35           0        0.000000   -1.807303   -1.489394
      7         35           0        0.000000    1.807303   -1.489394
 ---------------------------------------------------------------------
 Rotational constants (GHZ):      0.4704237      0.4476290      0.3646316
 Basis read from rwf:  (5D, 7F)
 Pseudo-potential data read from rwf file.
 There are    65 symmetry adapted cartesian basis functions of A1  symmetry.
 There are    22 symmetry adapted cartesian basis functions of A2  symmetry.
 There are    34 symmetry adapted cartesian basis functions of B1  symmetry.
 There are    49 symmetry adapted cartesian basis functions of B2  symmetry.
 There are    58 symmetry adapted basis functions of A1  symmetry.
 There are    22 symmetry adapted basis functions of A2  symmetry.
 There are    33 symmetry adapted basis functions of B1  symmetry.
 There are    45 symmetry adapted basis functions of B2  symmetry.
   158 basis functions,   351 primitive gaussians,   170 cartesian basis functions
    79 alpha electrons       79 beta electrons
       nuclear repulsion energy      1626.2352795319 Hartrees.
 NAtoms=    7 NActive=    7 NUniq=    4 SFac= 3.06D+00 NAtFMM=   60 NAOKFM=F Big=F
 Integral buffers will be    131072 words long.
 Raffenetti 2 integral format.
 Two-electron integral symmetry is turned on.
 ------------------------------------------------------------------------------
 Polarizable Continuum Model (PCM)
 =================================
 Model                : PCM (using non-symmetric T matrix).
 Atomic radii         : UFF (Universal Force Field).
 Polarization charges : Total charges.
 Charge compensation  : None.
 Solution method      : On-the-fly selection.
 Cavity type          : Scaled VdW (van der Waals Surface) (Alpha=1.100).
 Cavity algorithm     : GePol (No added spheres)
                        Default sphere list used, NSphG=    7.
                        Lebedev-Laikov grids with approx.  5.0 points / Ang**2.
                        Smoothing algorithm: Karplus/York (Gamma=1.0000).
                        Polarization charges: spherical gaussians, with
                                              point-specific exponents (IZeta= 3).
                        Self-potential: point-specific (ISelfS= 7).
                        Self-field    : sphere-specific E.n sum rule (ISelfD= 2).
 1st derivatives      : Analytical E(r).r(x)/FMM algorithm (CHGder, D1EAlg=3).
                        Cavity 1st derivative terms included.
 Solvent              : Water, Eps=  78.355300 Eps(inf)=   1.777849
 ------------------------------------------------------------------------------
 Spheres list:
 ISph  on   Nord     Re0    Alpha      Xe            Ye            Ze
    1  Pt      1    1.3770  1.100      0.000000      0.000000      0.317291
    2  Cl      2    1.9735  1.100     -2.417271      0.000000      0.303456
    3  Cl      3    1.9735  1.100      0.000000      1.711250      2.035041
    4  Cl      4    1.9735  1.100      0.000000     -1.711250      2.035041
    5  Cl      5    1.9735  1.100      2.417271      0.000000      0.303456
    6  Br      6    2.0945  1.100      0.000000     -1.807303     -1.489394
    7  Br      7    2.0945  1.100      0.000000      1.807303     -1.489394
 ------------------------------------------------------------------------------
 One-electron integrals computed using PRISM.
   4 Symmetry operations used in ECPInt.
 ECPInt:  NShTT=    2080 NPrTT=   11209 LenC2=    1885 LenP2D=    7067.
 LDataN:  DoStor=T MaxTD1= 6 Len=  172
 NBasis=   158 RedAO= T EigKep=  1.00D-02  NBF=    58    22    33    45
 NBsUse=   158 1.00D-06 EigRej= -1.00D+00 NBFU=    58    22    33    45
 Defaulting to unpruned grid for atomic number  78.
 Initial guess from the checkpoint file:  "/home/scr/diego/Gau-2746.chk"
 B after Tr=     0.000000    0.000000    0.000000
         Rot=    1.000000    0.000000    0.000000    0.000000 Ang=   0.00 deg.
 Initial guess orbital symmetries:
       Occupied  (A1) (B2) (B1) (A1) (A1) (B2) (A1) (B2) (B2) (A1)
                 (B2) (B1) (A2) (A1) (B1) (A1) (A1) (B2) (A1) (B2)
                 (B1) (A1) (B2) (A1) (B2) (A1) (A2) (B1) (B2) (B1)
                 (A2) (A1) (B2) (A1) (B1) (A2) (B2) (A1) (A1) (A1)
                 (B2) (B1) (A2) (A1) (B2) (A1) (B2) (A2) (B1) (B1)
                 (A1) (B2) (A1) (A1) (B2) (B1) (A1) (B2) (A1) (B2)
                 (A1) (B1) (A2) (A1) (B1) (B2) (A1) (B2) (A1) (B1)
                 (A2) (B2) (A1) (B1) (A2) (A1) (B1) (A2) (B2)
       Virtual   (A1) (A1) (A1) (A1) (A1) (A1) (A1) (A1) (A1) (A1)
                 (A1) (A1) (A1) (A1) (A1) (A1) (A1) (A1) (A1) (A1)
                 (A1) (A1) (A1) (A1) (A1) (A1) (A1) (A1) (A2) (A2)
                 (A2) (A2) (A2) (A2) (A2) (A2) (A2) (A2) (A2) (A2)
                 (B1) (B1) (B1) (B1) (B1) (B1) (B1) (B1) (B1) (B1)
                 (B1) (B1) (B1) (B1) (B1) (B1) (B1) (B2) (B2) (B2)
                 (B2) (B2) (B2) (B2) (B2) (B2) (B2) (B2) (B2) (B2)
                 (B2) (B2) (B2) (B2) (B2) (B2) (B2) (B2) (B2)
 ExpMin= 2.90D-02 ExpMax= 1.13D+05 ExpMxC= 1.70D+04 IAcc=3 IRadAn=         5 AccDes= 0.00D+00
 Harris functional with IExCor=  402 and IRadAn=       5 diagonalized for initial guess.
 HarFok:  IExCor=  402 AccDes= 0.00D+00 IRadAn=         5 IDoV= 1 UseB2=F ITyADJ=14
 ICtDFT=  3500011 ScaDFX=  1.000000  1.000000  1.000000  1.000000
 Defaulting to unpruned grid for atomic number  78.
 Defaulting to unpruned grid for atomic number  78.
 Defaulting to unpruned grid for atomic number  78.
 Defaulting to unpruned grid for atomic number  78.
 Defaulting to unpruned grid for atomic number  78.
 Defaulting to unpruned grid for atomic number  78.
 Defaulting to unpruned grid for atomic number  78.
 Defaulting to unpruned grid for atomic number  78.
 FoFCou: FMM=F IPFlag=           0 FMFlag=      100000 FMFlg1=           0
         NFxFlg=           0 DoJE=T BraDBF=F KetDBF=T FulRan=T
         wScrn=  0.000000 ICntrl=     500 IOpCl=  0 I1Cent=   200000004 NGrid=           0
         NMat0=    1 NMatS0=      1 NMatT0=    0 NMatD0=    1 NMtDS0=    0 NMtDT0=    0
 Petite list used in FoFCou.
 Keep R1 ints in memory in symmetry-blocked form, NReq=98968516.
 Requested convergence on RMS density matrix=1.00D-08 within 128 cycles.
 Requested convergence on MAX density matrix=1.00D-06.
 Requested convergence on             energy=1.00D-06.
 No special actions if energy rises.
 Defaulting to unpruned grid for atomic number  78.
 Defaulting to unpruned grid for atomic number  78.
 Defaulting to unpruned grid for atomic number  78.
 Defaulting to unpruned grid for atomic number  78.
 Defaulting to unpruned grid for atomic number  78.
 Defaulting to unpruned grid for atomic number  78.
 Defaulting to unpruned grid for atomic number  78.
 Defaulting to unpruned grid for atomic number  78.
 Inv3:  Mode=1 IEnd=     5680128.
 Iteration    1 A*A^-1 deviation from unit magnitude is 5.55D-15 for    899.
 Iteration    1 A*A^-1 deviation from orthogonality  is 4.28D-15 for    791    105.
 Iteration    1 A^-1*A deviation from unit magnitude is 6.44D-15 for    854.
 Iteration    1 A^-1*A deviation from orthogonality  is 2.12D-15 for   1326   1216.
 Error on total polarization charges =  0.01735
 SCF Done:  E(RB3LYP) =  -7107.67077341     A.U. after   10 cycles
            NFock= 10  Conv=0.67D-08     -V/T= 2.0131
   4 Symmetry operations used in ECPInt.
 ECPInt:  NShTT=    2080 NPrTT=   11209 LenC2=    1885 LenP2D=    7067.
 LDataN:  DoStor=T MaxTD1= 7 Len=  274
 D1PCM: PCM CHGder 1st derivatives, ID1Alg=3 FixD1E=F DoIter=F DoCFld=F I1PDM=0.
 Calling FoFJK, ICntrl=      2127 FMM=F ISym2X=1 I1Cent= 0 IOpClX= 0 NMat=1 NMatS=1 NMatT=0.
 Defaulting to unpruned grid for atomic number  78.
 Defaulting to unpruned grid for atomic number  78.
 Defaulting to unpruned grid for atomic number  78.
 Defaulting to unpruned grid for atomic number  78.
 Defaulting to unpruned grid for atomic number  78.
 Defaulting to unpruned grid for atomic number  78.
 Defaulting to unpruned grid for atomic number  78.
 Defaulting to unpruned grid for atomic number  78.
 ***** Axes restored to original set *****
 -------------------------------------------------------------------
 Center     Atomic                   Forces (Hartrees/Bohr)
 Number     Number              X              Y              Z
 -------------------------------------------------------------------
      1       78          -0.000423088    0.000423088    0.000000000
      2       17          -0.000003126    0.000003126    0.000620630
      3       17          -0.000429027   -0.000125776    0.000000000
      4       17           0.000125776    0.000429027    0.000000000
      5       17          -0.000003126    0.000003126   -0.000620630
      6       35           0.000080532   -0.000652059    0.000000000
      7       35           0.000652059   -0.000080532    0.000000000
 -------------------------------------------------------------------
 Cartesian Forces:  Max     0.000652059 RMS     0.000337463

 GradGradGradGradGradGradGradGradGradGradGradGradGradGradGradGradGradGrad
 Berny optimization.
 Using GEDIIS/GDIIS optimizer.
 FormGI is forming the generalized inverse of G from B-inverse, IUseBI=4.
 Internal  Forces:  Max     0.000655645 RMS     0.000307084
 Search for a local minimum.
 Step number   3 out of a maximum of   42
 All quantities printed in internal units (Hartrees-Bohrs-Radians)
 Mixed Optimization -- En-DIIS/RFO-DIIS
 Update second derivatives using D2CorX and points    2    3
 DE= -6.78D-03 DEPred=-4.67D-03 R= 1.45D+00
 TightC=F SS=  1.41D+00  RLast= 3.31D-01 DXNew= 8.4853D-01 9.9309D-01
 Trust test= 1.45D+00 RLast= 3.31D-01 DXMaxT set to 8.49D-01
 ITU=  1  1  0
 Use linear search instead of GDIIS.
     Eigenvalues ---    0.07125   0.08487   0.09380   0.09772   0.10133
     Eigenvalues ---    0.11713   0.12615   0.13614   0.19388   0.19509
     Eigenvalues ---    0.20249   0.21652   0.22001   0.22001   0.22030
 RFO step:  Lambda=-1.39593187D-05 EMin= 7.12513257D-02
 Quartic linear search produced a step of -0.02309.
 Iteration  1 RMS(Cart)=  0.00331984 RMS(Int)=  0.00000411
 Iteration  2 RMS(Cart)=  0.00000398 RMS(Int)=  0.00000013
 Iteration  3 RMS(Cart)=  0.00000000 RMS(Int)=  0.00000013
 ClnCor:  largest displacement from symmetrization is 2.03D-05 for atom     2.
 Variable       Old X    -DE/DX   Delta X   Delta X   Delta X     New X
                                 (Linear)    (Quad)   (Total)
    R1        4.56806  -0.00062  -0.00308  -0.00092  -0.00401   4.56405
    R2        4.58197   0.00012  -0.00333   0.00251  -0.00082   4.58115
    R3        4.58197   0.00012  -0.00333   0.00251  -0.00082   4.58115
    R4        4.56806  -0.00062  -0.00308  -0.00092  -0.00401   4.56405
    R5        4.82915  -0.00065  -0.00290  -0.00159  -0.00449   4.82466
    R6        4.82915  -0.00065  -0.00290  -0.00159  -0.00449   4.82466
    A1        1.57485   0.00000  -0.00013   0.00007  -0.00005   1.57480
    A2        1.57485   0.00000  -0.00013   0.00008  -0.00005   1.57480
    A3        1.56675   0.00000   0.00013  -0.00009   0.00004   1.56679
    A4        1.56675   0.00000   0.00013  -0.00009   0.00004   1.56679
    A5        1.56701   0.00066   0.00006   0.00529   0.00535   1.57235
    A6        1.57485   0.00000  -0.00013   0.00008  -0.00005   1.57480
    A7        1.57252  -0.00043  -0.00004  -0.00227  -0.00232   1.57020
    A8        1.57485   0.00000  -0.00013   0.00008  -0.00005   1.57480
    A9        1.57252  -0.00043  -0.00004  -0.00227  -0.00232   1.57020
   A10        1.56675   0.00000   0.00013  -0.00009   0.00004   1.56679
   A11        1.56675   0.00000   0.00013  -0.00009   0.00004   1.56679
   A12        1.57114   0.00019   0.00003  -0.00075  -0.00072   1.57042
   A13        3.14970   0.00001  -0.00027   0.00015  -0.00011   3.14959
   A14        3.14160   0.00000   0.00000  -0.00002  -0.00001   3.14159
   A15        3.14160   0.00000   0.00000  -0.00001  -0.00001   3.14159
   A16        3.14967   0.00001  -0.00026   0.00021  -0.00007   3.14960
   A17        3.14366  -0.00023  -0.00001  -0.00302  -0.00303   3.14063
   A18        3.13953   0.00023   0.00001   0.00302   0.00303   3.14256
    D1       -1.57484  -0.00001   0.00013  -0.00009   0.00003  -1.57480
    D2        1.57484   0.00000  -0.00013   0.00008  -0.00005   1.57480
    D3       -1.57484  -0.00001   0.00013  -0.00009   0.00005  -1.57480
    D4       -1.56675   0.00000  -0.00013   0.00008  -0.00005  -1.56679
    D5        1.56702   0.00066   0.00006   0.00529   0.00535   1.57237
    D6        1.57484   0.00001  -0.00013   0.00009  -0.00005   1.57480
    D7       -1.57484   0.00000   0.00013  -0.00009   0.00005  -1.57480
    D8        1.56675   0.00000   0.00013  -0.00008   0.00005   1.56679
         Item               Value     Threshold  Converged?
 Maximum Force            0.000656     0.000450     NO 
 RMS     Force            0.000307     0.000300     NO 
 Maximum Displacement     0.010841     0.001800     NO 
 RMS     Displacement     0.003318     0.001200     NO 
 Predicted change in Energy=-9.940888D-06
 GradGradGradGradGradGradGradGradGradGradGradGradGradGradGradGradGradGrad

                          Input orientation:                          
 ---------------------------------------------------------------------
 Center     Atomic      Atomic             Coordinates (Angstroms)
 Number     Number       Type             X           Y           Z
 ---------------------------------------------------------------------
      1         78           0       -0.319459    0.338256    0.000000
      2         17           0       -0.329126    0.347923   -2.415152
      3         17           0       -0.321345   -2.085981    0.000000
      4         17           0        2.104778    0.340142    0.000000
      5         17           0       -0.329126    0.347923    2.415152
      6         35           0       -0.319936    2.891353    0.000000
      7         35           0       -2.872556    0.338733    0.000000
 ---------------------------------------------------------------------
                    Distance matrix (angstroms):
                    1          2          3          4          5
     1  Pt   0.000000
     2  Cl   2.415191   0.000000
     3  Cl   2.424238   3.428835   0.000000
     4  Cl   2.424238   3.428835   3.431057   0.000000
     5  Cl   2.415191   4.830304   3.428835   3.428835   0.000000
     6  Br   2.553098   3.507432   4.977335   3.519647   3.507432
     7  Br   2.553098   3.507432   3.519647   4.977335   3.507432
                    6          7
     6  Br   0.000000
     7  Br   3.609951   0.000000
 Stoichiometry    Br2Cl4Pt(2-)
 Framework group  C2V[C2(Pt),SGV(Br2Cl2),SGV'(Cl2)]
 Deg. of freedom     6
 Full point group                 C2V     NOp   4
 Largest Abelian subgroup         C2V     NOp   4
 Largest concise Abelian subgroup C2V     NOp   4
                         Standard orientation:                         
 ---------------------------------------------------------------------
 Center     Atomic      Atomic             Coordinates (Angstroms)
 Number     Number       Type             X           Y           Z
 ---------------------------------------------------------------------
      1         78           0        0.000000    0.000000    0.317699
      2         17           0       -2.415152    0.000000    0.304027
      3         17           0        0.000000    1.715528    2.030560
      4         17           0        0.000000   -1.715528    2.030560
      5         17           0        2.415152    0.000000    0.304027
      6         35           0        0.000000   -1.804975   -1.487950
      7         35           0        0.000000    1.804975   -1.487950
 ---------------------------------------------------------------------
 Rotational constants (GHZ):      0.4715617      0.4480331      0.3652056
 Basis read from rwf:  (5D, 7F)
 Pseudo-potential data read from rwf file.
 There are    65 symmetry adapted cartesian basis functions of A1  symmetry.
 There are    22 symmetry adapted cartesian basis functions of A2  symmetry.
 There are    34 symmetry adapted cartesian basis functions of B1  symmetry.
 There are    49 symmetry adapted cartesian basis functions of B2  symmetry.
 There are    58 symmetry adapted basis functions of A1  symmetry.
 There are    22 symmetry adapted basis functions of A2  symmetry.
 There are    33 symmetry adapted basis functions of B1  symmetry.
 There are    45 symmetry adapted basis functions of B2  symmetry.
   158 basis functions,   351 primitive gaussians,   170 cartesian basis functions
    79 alpha electrons       79 beta electrons
       nuclear repulsion energy      1627.5646633130 Hartrees.
 NAtoms=    7 NActive=    7 NUniq=    4 SFac= 3.06D+00 NAtFMM=   60 NAOKFM=F Big=F
 Integral buffers will be    131072 words long.
 Raffenetti 2 integral format.
 Two-electron integral symmetry is turned on.
 ------------------------------------------------------------------------------
 Polarizable Continuum Model (PCM)
 =================================
 Model                : PCM (using non-symmetric T matrix).
 Atomic radii         : UFF (Universal Force Field).
 Polarization charges : Total charges.
 Charge compensation  : None.
 Solution method      : On-the-fly selection.
 Cavity type          : Scaled VdW (van der Waals Surface) (Alpha=1.100).
 Cavity algorithm     : GePol (No added spheres)
                        Default sphere list used, NSphG=    7.
                        Lebedev-Laikov grids with approx.  5.0 points / Ang**2.
                        Smoothing algorithm: Karplus/York (Gamma=1.0000).
                        Polarization charges: spherical gaussians, with
                                              point-specific exponents (IZeta= 3).
                        Self-potential: point-specific (ISelfS= 7).
                        Self-field    : sphere-specific E.n sum rule (ISelfD= 2).
 1st derivatives      : Analytical E(r).r(x)/FMM algorithm (CHGder, D1EAlg=3).
                        Cavity 1st derivative terms included.
 Solvent              : Water, Eps=  78.355300 Eps(inf)=   1.777849
 ------------------------------------------------------------------------------
 Spheres list:
 ISph  on   Nord     Re0    Alpha      Xe            Ye            Ze
    1  Pt      1    1.3770  1.100      0.000000      0.000000      0.317699
    2  Cl      2    1.9735  1.100     -2.415152      0.000000      0.304027
    3  Cl      3    1.9735  1.100      0.000000      1.715528      2.030560
    4  Cl      4    1.9735  1.100      0.000000     -1.715528      2.030560
    5  Cl      5    1.9735  1.100      2.415152      0.000000      0.304027
    6  Br      6    2.0945  1.100      0.000000     -1.804975     -1.487950
    7  Br      7    2.0945  1.100      0.000000      1.804975     -1.487950
 ------------------------------------------------------------------------------
 One-electron integrals computed using PRISM.
   4 Symmetry operations used in ECPInt.
 ECPInt:  NShTT=    2080 NPrTT=   11209 LenC2=    1885 LenP2D=    7067.
 LDataN:  DoStor=T MaxTD1= 6 Len=  172
 NBasis=   158 RedAO= T EigKep=  9.95D-03  NBF=    58    22    33    45
 NBsUse=   158 1.00D-06 EigRej= -1.00D+00 NBFU=    58    22    33    45
 Defaulting to unpruned grid for atomic number  78.
 Initial guess from the checkpoint file:  "/home/scr/diego/Gau-2746.chk"
 B after Tr=     0.000000    0.000000    0.000000
         Rot=    1.000000    0.000000    0.000000    0.000000 Ang=   0.00 deg.
 Initial guess orbital symmetries:
       Occupied  (A1) (B2) (B1) (A1) (A1) (B2) (A1) (B2) (B2) (A1)
                 (B2) (B1) (A2) (A1) (B1) (A1) (A1) (B2) (A1) (B2)
                 (B1) (A1) (B2) (A1) (B2) (A1) (A2) (B1) (B1) (B2)
                 (A2) (A1) (B2) (A1) (B2) (A1) (B1) (A2) (A1) (A1)
                 (B2) (B1) (A2) (A1) (B2) (B2) (A1) (A2) (B1) (B1)
                 (A1) (B2) (A1) (A1) (B1) (B2) (A1) (B2) (A1) (B2)
                 (A1) (B1) (A2) (A1) (B1) (A1) (B2) (B2) (A1) (B1)
                 (A2) (B2) (A1) (B1) (A2) (A1) (B1) (A2) (B2)
       Virtual   (A1) (A1) (A1) (A1) (A1) (A1) (A1) (A1) (A1) (A1)
                 (A1) (A1) (A1) (A1) (A1) (A1) (A1) (A1) (A1) (A1)
                 (A1) (A1) (A1) (A1) (A1) (A1) (A1) (A1) (A2) (A2)
                 (A2) (A2) (A2) (A2) (A2) (A2) (A2) (A2) (A2) (A2)
                 (B1) (B1) (B1) (B1) (B1) (B1) (B1) (B1) (B1) (B1)
                 (B1) (B1) (B1) (B1) (B1) (B1) (B1) (B2) (B2) (B2)
                 (B2) (B2) (B2) (B2) (B2) (B2) (B2) (B2) (B2) (B2)
                 (B2) (B2) (B2) (B2) (B2) (B2) (B2) (B2) (B2)
 Keep R1 ints in memory in symmetry-blocked form, NReq=98968516.
 Requested convergence on RMS density matrix=1.00D-08 within 128 cycles.
 Requested convergence on MAX density matrix=1.00D-06.
 Requested convergence on             energy=1.00D-06.
 No special actions if energy rises.
 Defaulting to unpruned grid for atomic number  78.
 Defaulting to unpruned grid for atomic number  78.
 Defaulting to unpruned grid for atomic number  78.
 Defaulting to unpruned grid for atomic number  78.
 Defaulting to unpruned grid for atomic number  78.
 Defaulting to unpruned grid for atomic number  78.
 Defaulting to unpruned grid for atomic number  78.
 Defaulting to unpruned grid for atomic number  78.
 Inv3:  Mode=1 IEnd=     5647152.
 Iteration    1 A*A^-1 deviation from unit magnitude is 6.77D-15 for    636.
 Iteration    1 A*A^-1 deviation from orthogonality  is 3.07D-15 for    790    304.
 Iteration    1 A^-1*A deviation from unit magnitude is 6.11D-15 for    310.
 Iteration    1 A^-1*A deviation from orthogonality  is 3.97D-15 for   1331   1215.
 Error on total polarization charges =  0.01737
 SCF Done:  E(RB3LYP) =  -7107.67078710     A.U. after    8 cycles
            NFock=  8  Conv=0.87D-08     -V/T= 2.0131
   4 Symmetry operations used in ECPInt.
 ECPInt:  NShTT=    2080 NPrTT=   11209 LenC2=    1885 LenP2D=    7067.
 LDataN:  DoStor=T MaxTD1= 7 Len=  274
 D1PCM: PCM CHGder 1st derivatives, ID1Alg=3 FixD1E=F DoIter=F DoCFld=F I1PDM=0.
 Calling FoFJK, ICntrl=      2127 FMM=F ISym2X=1 I1Cent= 0 IOpClX= 0 NMat=1 NMatS=1 NMatT=0.
 Defaulting to unpruned grid for atomic number  78.
 Defaulting to unpruned grid for atomic number  78.
 Defaulting to unpruned grid for atomic number  78.
 Defaulting to unpruned grid for atomic number  78.
 Defaulting to unpruned grid for atomic number  78.
 Defaulting to unpruned grid for atomic number  78.
 Defaulting to unpruned grid for atomic number  78.
 Defaulting to unpruned grid for atomic number  78.
 ***** Axes restored to original set *****
 -------------------------------------------------------------------
 Center     Atomic                   Forces (Hartrees/Bohr)
 Number     Number              X              Y              Z
 -------------------------------------------------------------------
      1       78          -0.000428237    0.000428237    0.000000000
      2       17           0.000008549   -0.000008549    0.000136246
      3       17          -0.000181617   -0.000291486    0.000000000
      4       17           0.000291486    0.000181617    0.000000000
      5       17           0.000008549   -0.000008549   -0.000136246
      6       35           0.000103231   -0.000198039    0.000000000
      7       35           0.000198039   -0.000103231    0.000000000
 -------------------------------------------------------------------
 Cartesian Forces:  Max     0.000428237 RMS     0.000187698

 GradGradGradGradGradGradGradGradGradGradGradGradGradGradGradGradGradGrad
 Berny optimization.
 Using GEDIIS/GDIIS optimizer.
 FormGI is forming the generalized inverse of G from B-inverse, IUseBI=4.
 Internal  Forces:  Max     0.000291627 RMS     0.000141509
 Search for a local minimum.
 Step number   4 out of a maximum of   42
 All quantities printed in internal units (Hartrees-Bohrs-Radians)
 Mixed Optimization -- En-DIIS/RFO-DIIS
 Swapping is turned off.
 Update second derivatives using D2CorX and points    2    3    4
 DE= -1.37D-05 DEPred=-9.94D-06 R= 1.38D+00
 TightC=F SS=  1.41D+00  RLast= 1.27D-02 DXNew= 1.4270D+00 3.8031D-02
 Trust test= 1.38D+00 RLast= 1.27D-02 DXMaxT set to 8.49D-01
 ITU=  1  1  1  0
     Eigenvalues ---    0.07094   0.07800   0.08514   0.09380   0.10115
     Eigenvalues ---    0.11709   0.12615   0.12762   0.18630   0.19388
     Eigenvalues ---    0.19509   0.20603   0.21950   0.22001   0.22001
 En-DIIS/RFO-DIIS IScMMF=        0 using points:     4    3
 RFO step:  Lambda=-1.84660228D-06.
 DidBck=F Rises=F RFO-DIIS coefs:    1.45117   -0.45117
 Iteration  1 RMS(Cart)=  0.00219417 RMS(Int)=  0.00000175
 Iteration  2 RMS(Cart)=  0.00000169 RMS(Int)=  0.00000016
 Iteration  3 RMS(Cart)=  0.00000000 RMS(Int)=  0.00000016
 ClnCor:  largest displacement from symmetrization is 2.38D-06 for atom     2.
 Variable       Old X    -DE/DX   Delta X   Delta X   Delta X     New X
                                 (Linear)    (Quad)   (Total)
    R1        4.56405  -0.00014  -0.00181   0.00037  -0.00144   4.56261
    R2        4.58115   0.00029  -0.00037   0.00210   0.00173   4.58287
    R3        4.58115   0.00029  -0.00037   0.00210   0.00173   4.58287
    R4        4.56405  -0.00014  -0.00181   0.00037  -0.00144   4.56261
    R5        4.82466  -0.00020  -0.00203  -0.00004  -0.00207   4.82258
    R6        4.82466  -0.00020  -0.00203  -0.00004  -0.00207   4.82258
    A1        1.57480  -0.00001  -0.00002  -0.00010  -0.00013   1.57467
    A2        1.57480  -0.00001  -0.00002  -0.00010  -0.00013   1.57467
    A3        1.56679   0.00001   0.00002   0.00010   0.00012   1.56691
    A4        1.56679   0.00001   0.00002   0.00010   0.00012   1.56691
    A5        1.57235   0.00028   0.00241   0.00104   0.00345   1.57580
    A6        1.57480  -0.00001  -0.00002  -0.00010  -0.00013   1.57467
    A7        1.57020  -0.00026  -0.00104  -0.00113  -0.00218   1.56803
    A8        1.57480  -0.00001  -0.00002  -0.00010  -0.00013   1.57467
    A9        1.57020  -0.00026  -0.00104  -0.00113  -0.00218   1.56803
   A10        1.56679   0.00001   0.00002   0.00010   0.00012   1.56691
   A11        1.56679   0.00001   0.00002   0.00010   0.00012   1.56691
   A12        1.57042   0.00025  -0.00032   0.00123   0.00091   1.57133
   A13        3.14959  -0.00001  -0.00005  -0.00020  -0.00025   3.14934
   A14        3.14159   0.00000  -0.00001   0.00000   0.00000   3.14158
   A15        3.14159   0.00000  -0.00001   0.00000   0.00000   3.14158
   A16        3.14960  -0.00001  -0.00003  -0.00020  -0.00023   3.14938
   A17        3.14063  -0.00001  -0.00137   0.00010  -0.00127   3.13936
   A18        3.14256   0.00001   0.00137  -0.00010   0.00127   3.14383
    D1       -1.57480   0.00000   0.00002   0.00010   0.00011  -1.57469
    D2        1.57480   0.00000  -0.00002  -0.00010  -0.00012   1.57468
    D3       -1.57480   0.00001   0.00002   0.00010   0.00012  -1.57468
    D4       -1.56679   0.00000  -0.00002  -0.00010  -0.00012  -1.56691
    D5        1.57237   0.00028   0.00241   0.00104   0.00345   1.57582
    D6        1.57480  -0.00001  -0.00002  -0.00010  -0.00012   1.57468
    D7       -1.57480   0.00001   0.00002   0.00010   0.00012  -1.57468
    D8        1.56679   0.00001   0.00002   0.00010   0.00012   1.56691
         Item               Value     Threshold  Converged?
 Maximum Force            0.000292     0.000450     YES
 RMS     Force            0.000142     0.000300     YES
[...]
 Frc consts  --      1.8036                 2.0625                 1.8313
 IR Inten    --      8.2363                12.8992                32.9841
  Atom  AN      X      Y      Z        X      Y      Z        X      Y      Z
     1  78     0.00   0.33   0.00     0.00   0.00   0.36     0.00   0.00  -0.13
     2  17     0.00  -0.16   0.00     0.08   0.00  -0.16     0.57   0.00   0.02
     3  17     0.00   0.17   0.30     0.00   0.27   0.10     0.00   0.28   0.30
     4  17     0.00   0.17  -0.30     0.00  -0.27   0.10     0.00  -0.28   0.30
     5  17     0.00  -0.16   0.00    -0.08   0.00  -0.16    -0.57   0.00   0.02
     6  35     0.00  -0.41  -0.36     0.00  -0.38  -0.42     0.00   0.01   0.02
     7  35     0.00  -0.41   0.36     0.00   0.38  -0.42     0.00  -0.01   0.02
                     13                     14                     15
                     B2                     A1                     B1
 Frequencies --    287.7667               302.7244               304.0085
 Red. masses --     42.1516                37.6715                45.7572
 Frc consts  --      2.0566                 2.0340                 2.4916
 IR Inten    --     82.6371                46.2481                99.7523
  Atom  AN      X      Y      Z        X      Y      Z        X      Y      Z
     1  78     0.00   0.21   0.00     0.00   0.00   0.13     0.26   0.00   0.00
     2  17     0.00  -0.02   0.00     0.46   0.00  -0.01    -0.68   0.00   0.00
     3  17     0.00  -0.51  -0.47     0.00  -0.37  -0.38    -0.03   0.00   0.00
     4  17     0.00  -0.51   0.47     0.00   0.37  -0.38    -0.03   0.00   0.00
     5  17     0.00  -0.02   0.00    -0.46   0.00  -0.01    -0.68   0.00   0.00
     6  35     0.00  -0.03  -0.01     0.00   0.02   0.01    -0.01   0.00   0.00
     7  35     0.00  -0.03   0.01     0.00  -0.02   0.01    -0.01   0.00   0.00

 -------------------
 - Thermochemistry -
 -------------------
 Temperature   298.150 Kelvin.  Pressure   1.00000 Atm.
 Atom     1 has atomic number 78 and mass 194.96480
 Atom     2 has atomic number 17 and mass  34.96885
 Atom     3 has atomic number 17 and mass  34.96885
 Atom     4 has atomic number 17 and mass  34.96885
 Atom     5 has atomic number 17 and mass  34.96885
 Atom     6 has atomic number 35 and mass  78.91834
 Atom     7 has atomic number 35 and mass  78.91834
 Molecular mass:   492.67688 amu.
 Principal axes and moments of inertia in atomic units:
                           1         2         3
     Eigenvalues --  3819.596624033.194644940.85171
           X            0.00000   0.00000   1.00000
           Y            1.00000   0.00000   0.00000
           Z            0.00000   1.00000   0.00000
 This molecule is an asymmetric top.
 Rotational symmetry number  2.
 Warning -- assumption of classical behavior for rotation
           may cause significant error
 Rotational temperatures (Kelvin)      0.02268     0.02148     0.01753
 Rotational constants (GHZ):           0.47250     0.44747     0.36527
 Zero-point vibrational energy      15726.9 (Joules/Mol)
                                    3.75882 (Kcal/Mol)
 Warning -- explicit consideration of  15 degrees of freedom as
           vibrations may cause significant error
 Vibrational temperatures:    115.91   118.54   132.74   161.85   175.13
          (Kelvin)            179.46   202.70   208.42   209.27   283.84
                              294.22   413.94   414.03   435.55   437.40
 
 Zero-point correction=                           0.005990 (Hartree/Particle)
 Thermal correction to Energy=                    0.017992
 Thermal correction to Enthalpy=                  0.018936
 Thermal correction to Gibbs Free Energy=        -0.035572
 Sum of electronic and zero-point Energies=          -7107.664801
 Sum of electronic and thermal Energies=             -7107.652799
 Sum of electronic and thermal Enthalpies=           -7107.651855
 Sum of electronic and thermal Free Energies=        -7107.706363
 
                     E (Thermal)             CV                S
                      KCal/Mol        Cal/Mol-Kelvin    Cal/Mol-Kelvin
 Total                   11.290             33.771            114.721
 Electronic               0.000              0.000              0.000
 Translational            0.889              2.981             44.472
 Rotational               0.889              2.981             31.321
 Vibrational              9.513             27.810             38.929
 Vibration     1          0.600              1.962              3.877
 Vibration     2          0.600              1.961              3.833
 Vibration     3          0.602              1.955              3.612
 Vibration     4          0.607              1.939              3.225
 Vibration     5          0.609              1.931              3.073
 Vibration     6          0.610              1.928              3.026
 Vibration     7          0.615              1.912              2.792
 Vibration     8          0.616              1.908              2.739
 Vibration     9          0.617              1.908              2.731
 Vibration    10          0.637              1.844              2.158
 Vibration    11          0.640              1.834              2.092
 Vibration    12          0.685              1.697              1.487
 Vibration    13          0.685              1.696              1.487
 Vibration    14          0.694              1.669              1.402
 Vibration    15          0.695              1.666              1.395
                       Q            Log10(Q)             Ln(Q)
 Total Bot       0.230065D+17         16.361851         37.674554
 Total V=0       0.130942D+20         19.117078         44.018699
 Vib (Bot)       0.342769D+02          1.535002          3.534472
 Vib (Bot)    1  0.255616D+01          0.407588          0.938507
 Vib (Bot)    2  0.249877D+01          0.397727          0.915800
 Vib (Bot)    3  0.222761D+01          0.347840          0.800931
 Vib (Bot)    4  0.181966D+01          0.259990          0.598649
 Vib (Bot)    5  0.167817D+01          0.224837          0.517705
 Vib (Bot)    6  0.163658D+01          0.213938          0.492612
 Vib (Bot)    7  0.144292D+01          0.159242          0.366669
 Vib (Bot)    8  0.140181D+01          0.146689          0.337764
 Vib (Bot)    9  0.139589D+01          0.144851          0.333533
 Vib (Bot)   10  0.101178D+01          0.005085          0.011708
 Vib (Bot)   11  0.973377D+00         -0.011719         -0.026984
 Vib (Bot)   12  0.665512D+00         -0.176844         -0.407198
 Vib (Bot)   13  0.665350D+00         -0.176950         -0.407442
 Vib (Bot)   14  0.627251D+00         -0.202559         -0.466408
 Vib (Bot)   15  0.624146D+00         -0.204714         -0.471372
 Vib (V=0)       0.195087D+05          4.290229          9.878618
 Vib (V=0)    1  0.310460D+01          0.492006          1.132886
 Vib (V=0)    2  0.304831D+01          0.484059          1.114586
 Vib (V=0)    3  0.278304D+01          0.444519          1.023543
 Vib (V=0)    4  0.238710D+01          0.377871          0.870081
 Vib (V=0)    5  0.225107D+01          0.352390          0.811408
 Vib (V=0)    6  0.221126D+01          0.344640          0.793562
 Vib (V=0)    7  0.202710D+01          0.306874          0.706604
 Vib (V=0)    8  0.198831D+01          0.298484          0.687285
 Vib (V=0)    9  0.198274D+01          0.297265          0.684479
 Vib (V=0)   10  0.162858D+01          0.211809          0.487708
 Vib (V=0)   11  0.159429D+01          0.202566          0.466426
 Vib (V=0)   12  0.133241D+01          0.124638          0.286989
 Vib (V=0)   13  0.133228D+01          0.124596          0.286892
 Vib (V=0)   14  0.130215D+01          0.114661          0.264016
 Vib (V=0)   15  0.129972D+01          0.113851          0.262152
 Electronic      0.100000D+01          0.000000          0.000000
 Translational   0.429832D+09          8.633298         19.878904
 Rotational      0.156153D+07          6.193551         14.261177
 ***** Axes restored to original set *****
 -------------------------------------------------------------------
 Center     Atomic                   Forces (Hartrees/Bohr)
 Number     Number              X              Y              Z
 -------------------------------------------------------------------
      1       78          -0.000052682    0.000052682    0.000000000
      2       17          -0.000000733    0.000000733   -0.000007353
      3       17           0.000008524   -0.000017967    0.000000000
      4       17           0.000017967   -0.000008524    0.000000000
      5       17          -0.000000733    0.000000733    0.000007353
      6       35           0.000005919   -0.000021738    0.000000000
      7       35           0.000021738   -0.000005919    0.000000000
 -------------------------------------------------------------------
 Cartesian Forces:  Max     0.000052682 RMS     0.000018857
 FormGI is forming the generalized inverse of G from B-inverse, IUseBI=4.

 GradGradGradGradGradGradGradGradGradGradGradGradGradGradGradGradGradGrad
 Berny optimization.
 Internal  Forces:  Max     0.000021733 RMS     0.000009064
 Search for a local minimum.
 Step number   1 out of a maximum of    2
 All quantities printed in internal units (Hartrees-Bohrs-Radians)
 Second derivative matrix not updated -- analytic derivatives used.
 ITU=  0
     Eigenvalues ---    0.04758   0.05448   0.06079   0.06567   0.06820
     Eigenvalues ---    0.07163   0.07711   0.08391   0.08802   0.09240
     Eigenvalues ---    0.09755   0.10429   0.10632   0.10963   0.12100
 Angle between quadratic step and forces=   6.90 degrees.
 Linear search not attempted -- first point.
 Iteration  1 RMS(Cart)=  0.00013314 RMS(Int)=  0.00000001
 Iteration  2 RMS(Cart)=  0.00000001 RMS(Int)=  0.00000000
 ClnCor:  largest displacement from symmetrization is 8.13D-10 for atom     5.
 Variable       Old X    -DE/DX   Delta X   Delta X   Delta X     New X
                                 (Linear)    (Quad)   (Total)
    R1        4.56275   0.00001   0.00000   0.00007   0.00007   4.56282
    R2        4.58428   0.00002   0.00000   0.00023   0.00023   4.58451
    R3        4.58428   0.00002   0.00000   0.00023   0.00023   4.58451
    R4        4.56275   0.00001   0.00000   0.00007   0.00007   4.56282
    R5        4.82222  -0.00002   0.00000  -0.00030  -0.00030   4.82192
    R6        4.82222  -0.00002   0.00000  -0.00030  -0.00030   4.82192
    A1        1.57458   0.00000   0.00000   0.00001   0.00001   1.57458
    A2        1.57458   0.00000   0.00000   0.00001   0.00001   1.57458
    A3        1.56701   0.00000   0.00000   0.00000   0.00000   1.56700
    A4        1.56701   0.00000   0.00000   0.00000   0.00000   1.56700
    A5        1.57619  -0.00001   0.00000  -0.00021  -0.00021   1.57598
    A6        1.57458   0.00000   0.00000   0.00001   0.00001   1.57458
    A7        1.56722   0.00000   0.00000   0.00002   0.00002   1.56724
    A8        1.57458   0.00000   0.00000   0.00001   0.00001   1.57458
    A9        1.56722   0.00000   0.00000   0.00002   0.00002   1.56724
   A10        1.56701   0.00000   0.00000   0.00000   0.00000   1.56700
   A11        1.56701   0.00000   0.00000   0.00000   0.00000   1.56700
   A12        1.57255   0.00001   0.00000   0.00017   0.00017   1.57272
   A13        3.14916   0.00000   0.00000   0.00001   0.00001   3.14917
   A14        3.14159   0.00000   0.00000   0.00000   0.00000   3.14159
   A15        3.14159   0.00000   0.00000   0.00000   0.00000   3.14159
   A16        3.14920   0.00000   0.00000   0.00001   0.00001   3.14921
   A17        3.13977   0.00001   0.00000   0.00019   0.00019   3.13997
   A18        3.14341  -0.00001   0.00000  -0.00019  -0.00019   3.14322
    D1       -1.57460   0.00000   0.00000   0.00000   0.00000  -1.57460
    D2        1.57459   0.00000   0.00000   0.00001   0.00001   1.57460
    D3       -1.57459   0.00000   0.00000  -0.00001  -0.00001  -1.57460
    D4       -1.56700   0.00000   0.00000   0.00001   0.00001  -1.56699
    D5        1.57620  -0.00001   0.00000  -0.00021  -0.00021   1.57599
    D6        1.57459   0.00000   0.00000   0.00001   0.00001   1.57460
    D7       -1.57459   0.00000   0.00000  -0.00001  -0.00001  -1.57460
    D8        1.56700   0.00000   0.00000  -0.00001  -0.00001   1.56699
         Item               Value     Threshold  Converged?
 Maximum Force            0.000022     0.000450     YES
 RMS     Force            0.000009     0.000300     YES
 Maximum Displacement     0.000285     0.001800     YES
 RMS     Displacement     0.000133     0.001200     YES
 Predicted change in Energy=-1.772402D-08
 Optimization completed.
    -- Stationary point found.
                           ----------------------------
                           !   Optimized Parameters   !
                           ! (Angstroms and Degrees)  !
 --------------------------                            --------------------------
 ! Name  Definition              Value          Derivative Info.                !
 --------------------------------------------------------------------------------
 ! R1    R(1,2)                  2.4145         -DE/DX =    0.0                 !
 ! R2    R(1,3)                  2.4259         -DE/DX =    0.0                 !
 ! R3    R(1,4)                  2.4259         -DE/DX =    0.0                 !
 ! R4    R(1,5)                  2.4145         -DE/DX =    0.0                 !
 ! R5    R(1,6)                  2.5518         -DE/DX =    0.0                 !
 ! R6    R(1,7)                  2.5518         -DE/DX =    0.0                 !
 ! A1    A(2,1,3)               90.2167         -DE/DX =    0.0                 !
 ! A2    A(2,1,4)               90.2167         -DE/DX =    0.0                 !
 ! A3    A(2,1,6)               89.7829         -DE/DX =    0.0                 !
 ! A4    A(2,1,7)               89.7829         -DE/DX =    0.0                 !
 ! A5    A(3,1,4)               90.3088         -DE/DX =    0.0                 !
 ! A6    A(3,1,5)               90.2167         -DE/DX =    0.0                 !
 ! A7    A(3,1,7)               89.7953         -DE/DX =    0.0                 !
 ! A8    A(4,1,5)               90.2167         -DE/DX =    0.0                 !
 ! A9    A(4,1,6)               89.7953         -DE/DX =    0.0                 !
 ! A10   A(5,1,6)               89.7829         -DE/DX =    0.0                 !
 ! A11   A(5,1,7)               89.7829         -DE/DX =    0.0                 !
 ! A12   A(6,1,7)               90.1005         -DE/DX =    0.0                 !
 ! A13   L(2,1,5,3,-1)         180.4335         -DE/DX =    0.0                 !
 ! A14   L(3,1,6,2,-1)         179.9996         -DE/DX =    0.0                 !
 ! A15   L(4,1,7,2,-1)         179.9996         -DE/DX =    0.0                 !
 ! A16   L(2,1,5,3,-2)         180.4358         -DE/DX =    0.0                 !
 ! A17   L(3,1,6,2,-2)         179.8958         -DE/DX =    0.0                 !
 ! A18   L(4,1,7,2,-2)         180.1042         -DE/DX =    0.0                 !
 ! D1    D(2,1,4,3)            -90.2179         -DE/DX =    0.0                 !
 ! D2    D(2,1,7,3)             90.2175         -DE/DX =    0.0                 !
 ! D3    D(2,1,6,4)            -90.2175         -DE/DX =    0.0                 !
 ! D4    D(2,1,7,6)            -89.7825         -DE/DX =    0.0                 !
 ! D5    D(3,1,5,4)             90.3096         -DE/DX =    0.0                 !
 ! D6    D(3,1,7,5)             90.2175         -DE/DX =    0.0                 !
 ! D7    D(4,1,6,5)            -90.2175         -DE/DX =    0.0                 !
 ! D8    D(5,1,7,6)             89.7825         -DE/DX =    0.0                 !
 --------------------------------------------------------------------------------
 GradGradGradGradGradGradGradGradGradGradGradGradGradGradGradGradGradGrad

 1\1\GINC-NEQC17\Freq\RB3LYP\Gen\Br2Cl4Pt1(2-)\DIEGO\18-Aug-2021\0\\#N 
 Geom=AllCheck Guess=TCheck SCRF=Check GenChk RB3LYP/ChkBas Freq\\Estru
 tura 19\\-2,1\Pt,-0.3197478762,0.3385448462,0.\Cl,-0.3289066069,0.3477
 035769,-2.4144689301\Cl,-0.3262854745,-2.0873452599,0.\Cl,2.1061422299
 ,0.3450824445,0.\Cl,-0.3289066069,0.3477035769,2.4144689301\Br,-0.3175
 09919,2.8903525646,0.\Br,-2.8715555946,0.336306889,0.\\Version=EM64L-G
 09RevD.01\State=1-A1\HF=-7107.6707909\RMSD=2.866e-09\RMSF=1.886e-05\Ze
 roPoint=0.0059901\Thermal=0.0179918\Dipole=-0.8808087,0.8808087,0.\Dip
 oleDeriv=1.4469279,0.0068619,0.,0.0068619,1.446928,0.,0.,0.,1.2760738,
 -0.1567864,-0.0009549,0.0037552,-0.0009549,-0.1567864,-0.0037552,0.009
 368,-0.009368,-1.3347651,-0.1649084,0.0067059,0.,0.0074687,-1.5676665,
 0.,0.,0.,-0.1749352,-1.5676665,0.0074687,0.,0.0067059,-0.1649084,0.,0.
 ,0.,-0.1749352,-0.1567864,-0.0009549,-0.0037552,-0.0009549,-0.1567864,
 0.0037552,-0.009368,0.009368,-1.3347651,-0.1001013,-0.0237567,0.,0.004
 63,-1.300679,0.,0.,0.,-0.1283366,-1.300679,0.00463,0.,-0.0237567,-0.10
 01013,0.,0.,0.,-0.1283366\Polar=203.9320566,1.2010898,203.9320577,0.,0
 .,175.1664901\PG=C02V [C2(Pt1),SGV(Br2Cl2),SGV'(Cl2)]\NImag=0\\0.21728
 371,0.00000192,0.21728371,0.,0.,0.23364868,-0.01798819,0.00002686,0.00
 055099,0.01587131,0.00002686,-0.01798819,-0.00055099,-0.00011631,0.015
 87131,0.00015431,-0.00015431,-0.08422505,0.00021300,-0.00021300,0.1021
 6216,-0.01713892,0.00050257,0.,0.00081298,0.00015775,-0.00008341,0.013
 60769,0.00023487,-0.08070163,0.,0.00002920,-0.00160751,0.00308822,0.00
 117451,0.09698514,0.,0.,-0.01777062,0.00005151,0.00609810,-0.00111306,
 0.,0.,0.01436405,-0.08070163,0.00023487,0.,-0.00160751,0.00002920,-0.0
 0308822,-0.00013820,-0.00436157,0.,0.09698514,0.00050257,-0.01713892,0
 .,0.00015775,0.00081298,0.00008341,-0.00679116,-0.00013820,0.,0.001174
 51,0.01360769,0.,0.,-0.01777062,-0.00609810,-0.00005151,-0.00111306,0.
 ,0.,0.00242324,0.,0.,0.01436405,-0.01798819,0.00002686,-0.00055099,0.0
 0405118,-0.00000236,-0.00006446,0.00081298,0.00002920,-0.00005151,-0.0
 0160751,0.00015775,0.00609810,0.01587131,0.00002686,-0.01798819,0.0005
 5099,-0.00000236,0.00405118,0.00006446,0.00015775,-0.00160751,-0.00609
 810,0.00002920,0.00081298,0.00005151,-0.00011631,0.01587131,-0.0001543
 1,0.00015431,-0.08422505,0.00006446,-0.00006446,-0.01170473,0.00008341
 ,-0.00308822,-0.00111306,0.00308822,-0.00008341,-0.00111306,-0.0002130
 0,0.00021300,0.10216216,-0.01548519,-0.00009362,0.,0.00117672,0.000081
 38,0.00006572,0.00345147,-0.00016421,0.,-0.00137466,0.00478288,0.,0.00
 117672,0.00008138,-0.00006572,0.01181089,-0.00069946,-0.06798160,0.,-0
 .00017651,-0.00231648,-0.00280306,0.00001570,-0.01155563,0.,0.00305800
 ,-0.00140800,0.,-0.00017651,-0.00231648,0.00280306,0.00160900,0.086334
 15,0.,0.,-0.01482867,0.00009677,-0.00512136,-0.00200313,0.,0.,0.003424
 79,0.,0.,-0.00021534,-0.00009677,0.00512136,-0.00200313,0.,0.,0.012440
 39,-0.06798159,-0.00069946,0.,-0.00231648,-0.00017651,0.00280306,-0.00
 140800,0.00305800,0.,-0.01155563,0.00001570,0.,-0.00231648,-0.00017651
 ,-0.00280306,-0.00075594,-0.00363022,0.,0.08633414,-0.00009362,-0.0154
 8519,0.,0.00008138,0.00117672,-0.00006572,0.00478288,-0.00137466,0.,-0
 .00016421,0.00345147,0.,0.00008138,0.00117672,0.00006572,-0.00629682,-
 0.00075594,0.,0.00160900,0.01181089,0.,0.,-0.01482867,0.00512136,-0.00
 009677,-0.00200313,0.,0.,-0.00021534,0.,0.,0.00342479,-0.00512136,0.00
 009677,-0.00200313,0.,0.,0.00318510,0.,0.,0.01244039\\0.00005268,-0.00
 005268,0.,0.00000073,-0.00000073,0.00000735,-0.00000852,0.00001797,0.,
 -0.00001797,0.00000852,0.,0.00000073,-0.00000073,-0.00000735,-0.000005
 92,0.00002174,0.,-0.00002174,0.00000592,0.\\\@


 THE ONLY DIFFERENCE BETWEEN ECCENTRICS AND JOGGERS
 IS THAT JOGGERS WEAR SWEATBANDS WHEN THEY RUN IN THE RAIN.
 Job cpu time:       0 days  0 hours  5 minutes  6.6 seconds.
 File lengths (MBytes):  RWF=     75 Int=      0 D2E=      0 Chk=      6 Scr=      1
 Normal termination of Gaussian 09 at Wed Aug 18 03:19:14 2021.
