 Entering Gaussian System, Link 0=g09
 Input=estrutura20_D2O.com
 Output=estrutura20_D2O.log
 Initial command:
 /home/scr/programs/g09/l1.exe "/home/scr/diego/Gau-3429.inp" -scrdir="/home/scr/diego/"
 Entering Link 1 = /home/scr/programs/g09/l1.exe PID=      3431.
  
 Copyright (c) 1988,1990,1992,1993,1995,1998,2003,2009,2013,
            Gaussian, Inc.  All Rights Reserved.
  
 This is part of the Gaussian(R) 09 program.  It is based on
 the Gaussian(R) 03 system (copyright 2003, Gaussian, Inc.),
 the Gaussian(R) 98 system (copyright 1998, Gaussian, Inc.),
 the Gaussian(R) 94 system (copyright 1995, Gaussian, Inc.),
 the Gaussian 92(TM) system (copyright 1992, Gaussian, Inc.),
 the Gaussian 90(TM) system (copyright 1990, Gaussian, Inc.),
 the Gaussian 88(TM) system (copyright 1988, Gaussian, Inc.),
 the Gaussian 86(TM) system (copyright 1986, Carnegie Mellon
 University), and the Gaussian 82(TM) system (copyright 1983,
 Carnegie Mellon University). Gaussian is a federally registered
 trademark of Gaussian, Inc.
  
 This software contains proprietary and confidential information,
 including trade secrets, belonging to Gaussian, Inc.
  
 This software is provided under written license and may be
 used, copied, transmitted, or stored only in accord with that
 written license.
  
 The following legend is applicable only to US Government
 contracts under FAR:
  
                    RESTRICTED RIGHTS LEGEND
  
 Use, reproduction and disclosure by the US Government is
 subject to restrictions as set forth in subparagraphs (a)
 and (c) of the Commercial Computer Software - Restricted
 Rights clause in FAR 52.227-19.
  
 Gaussian, Inc.
 340 Quinnipiac St., Bldg. 40, Wallingford CT 06492
  
  
 ---------------------------------------------------------------
 Warning -- This program may not be used in any manner that
 competes with the business of Gaussian, Inc. or will provide
 assistance to any competitor of Gaussian, Inc.  The licensee
 of this program is prohibited from giving any competitor of
 Gaussian, Inc. access to this program.  By using this program,
 the user acknowledges that Gaussian, Inc. is engaged in the
 business of creating and licensing software in the field of
 computational chemistry and represents and warrants to the
 licensee that it is not a competitor of Gaussian, Inc. and that
 it will not use this program in any manner prohibited above.
 ---------------------------------------------------------------
  

 Cite this work as:
 Gaussian 09, Revision D.01,
 M. J. Frisch, G. W. Trucks, H. B. Schlegel, G. E. Scuseria, 
 M. A. Robb, J. R. Cheeseman, G. Scalmani, V. Barone, B. Mennucci, 
 G. A. Petersson, H. Nakatsuji, M. Caricato, X. Li, H. P. Hratchian, 
 A. F. Izmaylov, J. Bloino, G. Zheng, J. L. Sonnenberg, M. Hada, 
 M. Ehara, K. Toyota, R. Fukuda, J. Hasegawa, M. Ishida, T. Nakajima, 
 Y. Honda, O. Kitao, H. Nakai, T. Vreven, J. A. Montgomery, Jr., 
 J. E. Peralta, F. Ogliaro, M. Bearpark, J. J. Heyd, E. Brothers, 
 K. N. Kudin, V. N. Staroverov, T. Keith, R. Kobayashi, J. Normand, 
 K. Raghavachari, A. Rendell, J. C. Burant, S. S. Iyengar, J. Tomasi, 
 M. Cossi, N. Rega, J. M. Millam, M. Klene, J. E. Knox, J. B. Cross, 
 V. Bakken, C. Adamo, J. Jaramillo, R. Gomperts, R. E. Stratmann, 
 O. Yazyev, A. J. Austin, R. Cammi, C. Pomelli, J. W. Ochterski, 
 R. L. Martin, K. Morokuma, V. G. Zakrzewski, G. A. Voth, 
 P. Salvador, J. J. Dannenberg, S. Dapprich, A. D. Daniels, 
 O. Farkas, J. B. Foresman, J. V. Ortiz, J. Cioslowski, 
 and D. J. Fox, Gaussian, Inc., Wallingford CT, 2013.
 
 ******************************************
 Gaussian 09:  EM64L-G09RevD.01 24-Apr-2013
                18-Aug-2021 
 ******************************************
 %mem=15gb
 %nproc=8
 Will use up to    8 processors via shared memory.
 ------------------------------------------------------------
 #b3lyp/gen pseudo=read opt freq=noraman scrf=(solvent=water)
 ------------------------------------------------------------
 1/14=-1,18=20,19=15,26=3,38=1/1,3;
 2/9=110,12=2,17=6,18=5,40=1/2;
 3/5=7,11=2,16=1,17=8,25=1,30=1,70=2201,71=1,72=1,74=-5/1,2,3;
 4//1;
 5/5=2,38=5,53=1/2;
 6/7=2,8=2,9=2,10=2,28=1/1;
 7//1,2,3,16;
 1/14=-1,18=20,19=15,26=3/3(2);
 2/9=110/2;
 99//99;
 2/9=110/2;
 3/5=7,6=1,11=2,16=1,17=8,25=1,30=1,70=2205,71=1,72=1,74=-5,82=7/1,2,3;
 4/5=5,16=3,69=1/1;
 5/5=2,38=5,53=1/2;
 7//1,2,3,16;
 1/14=-1,18=20,19=15,26=3/3(-5);
 2/9=110/2;
 6/7=2,8=2,9=2,10=2,19=2,28=1/1;
 99/9=1/99;
 ------------
 Estrutura 20
 ------------
 Symbolic Z-matrix:
 Charge = -2 Multiplicity = 1
 Pt                   -0.31955   0.33835   0. 
 Cl                   -0.31955  -1.94165   0. 
 Cl                    1.96045   0.33835   0. 
 Br                   -0.31955   0.33835  -2.43 
 Br                   -0.31955   0.33835   2.43 
 Cl                   -2.59955   0.33835   0. 
 Cl                   -0.31955   2.61835   0. 
 

 GradGradGradGradGradGradGradGradGradGradGradGradGradGradGradGradGradGrad
 Berny optimization.
 Initialization pass.
                           ----------------------------
                           !    Initial Parameters    !
                           ! (Angstroms and Degrees)  !
 --------------------------                            --------------------------
 ! Name  Definition              Value          Derivative Info.                !
 --------------------------------------------------------------------------------
 ! R1    R(1,2)                  2.28           estimate D2E/DX2                !
 ! R2    R(1,3)                  2.28           estimate D2E/DX2                !
 ! R3    R(1,4)                  2.43           estimate D2E/DX2                !
 ! R4    R(1,5)                  2.43           estimate D2E/DX2                !
 ! R5    R(1,6)                  2.28           estimate D2E/DX2                !
 ! R6    R(1,7)                  2.28           estimate D2E/DX2                !
 ! A1    A(2,1,3)               90.0            estimate D2E/DX2                !
 ! A2    A(2,1,4)               90.0            estimate D2E/DX2                !
 ! A3    A(2,1,5)               90.0            estimate D2E/DX2                !
 ! A4    A(2,1,6)               90.0            estimate D2E/DX2                !
 ! A5    A(3,1,4)               90.0            estimate D2E/DX2                !
 ! A6    A(3,1,5)               90.0            estimate D2E/DX2                !
 ! A7    A(3,1,7)               90.0            estimate D2E/DX2                !
 ! A8    A(4,1,6)               90.0            estimate D2E/DX2                !
 ! A9    A(4,1,7)               90.0            estimate D2E/DX2                !
 ! A10   A(5,1,6)               90.0            estimate D2E/DX2                !
 ! A11   A(5,1,7)               90.0            estimate D2E/DX2                !
 ! A12   A(6,1,7)               90.0            estimate D2E/DX2                !
 ! A13   L(2,1,7,3,-1)         180.0            estimate D2E/DX2                !
 ! A14   L(3,1,6,2,-1)         180.0            estimate D2E/DX2                !
 ! A15   L(4,1,5,2,-1)         180.0            estimate D2E/DX2                !
 ! A16   L(2,1,7,3,-2)         180.0            estimate D2E/DX2                !
 ! A17   L(3,1,6,2,-2)         180.0            estimate D2E/DX2                !
 ! A18   L(4,1,5,2,-2)         180.0            estimate D2E/DX2                !
 ! D1    D(2,1,4,3)            -90.0            estimate D2E/DX2                !
 ! D2    D(2,1,5,3)             90.0            estimate D2E/DX2                !
 ! D3    D(2,1,6,4)            -90.0            estimate D2E/DX2                !
 ! D4    D(2,1,6,5)             90.0            estimate D2E/DX2                !
 ! D5    D(3,1,7,4)             90.0            estimate D2E/DX2                !
 ! D6    D(3,1,7,5)            -90.0            estimate D2E/DX2                !
 ! D7    D(4,1,7,6)             90.0            estimate D2E/DX2                !
 ! D8    D(5,1,7,6)            -90.0            estimate D2E/DX2                !
 --------------------------------------------------------------------------------
 Trust Radius=3.00D-01 FncErr=1.00D-07 GrdErr=1.00D-06
 Number of steps in this run=     42 maximum allowed number of steps=    100.
 GradGradGradGradGradGradGradGradGradGradGradGradGradGradGradGradGradGrad

                          Input orientation:                          
 ---------------------------------------------------------------------
 Center     Atomic      Atomic             Coordinates (Angstroms)
 Number     Number       Type             X           Y           Z
 ---------------------------------------------------------------------
      1         78           0       -0.319549    0.338346    0.000000
      2         17           0       -0.319549   -1.941654    0.000000
      3         17           0        1.960451    0.338346    0.000000
      4         35           0       -0.319549    0.338346   -2.430000
      5         35           0       -0.319549    0.338346    2.430000
      6         17           0       -2.599549    0.338346    0.000000
      7         17           0       -0.319549    2.618346    0.000000
 ---------------------------------------------------------------------
                    Distance matrix (angstroms):
                    1          2          3          4          5
     1  Pt   0.000000
     2  Cl   2.280000   0.000000
     3  Cl   2.280000   3.224407   0.000000
     4  Br   2.430000   3.332161   3.332161   0.000000
     5  Br   2.430000   3.332161   3.332161   4.860000   0.000000
     6  Cl   2.280000   3.224407   4.560000   3.332161   3.332161
     7  Cl   2.280000   4.560000   3.224407   3.332161   3.332161
                    6          7
     6  Cl   0.000000
     7  Cl   3.224407   0.000000
 Stoichiometry    Br2Cl4Pt(2-)
 Framework group  D4H[O(Pt),C4(Br.Br),2C2'(Cl.Cl)]
 Deg. of freedom     2
 Full point group                 D4H     NOp  16
 Largest Abelian subgroup         D2H     NOp   8
 Largest concise Abelian subgroup D2H     NOp   8
                         Standard orientation:                         
 ---------------------------------------------------------------------
 Center     Atomic      Atomic             Coordinates (Angstroms)
 Number     Number       Type             X           Y           Z
 ---------------------------------------------------------------------
      1         78           0        0.000000    0.000000    0.000000
      2         17           0        0.000000    2.280000    0.000000
      3         17           0        2.280000    0.000000    0.000000
      4         35           0        0.000000    0.000000    2.430000
      5         35           0        0.000000    0.000000   -2.430000
      6         17           0       -2.280000    0.000000    0.000000
      7         17           0        0.000000   -2.280000    0.000000
 ---------------------------------------------------------------------
 Rotational constants (GHZ):      0.6950341      0.3900812      0.3900812
 General basis read from cards:  (5D, 7F)
 ======================================================================================================
                                       Pseudopotential Parameters
 ======================================================================================================
  Center     Atomic      Valence      Angular      Power
  Number     Number     Electrons     Momentum     of R      Exponent        Coefficient   SO-Coeffient
 ======================================================================================================
    1         78           18
                                      G and up 
                                                     1      728.9394056       -0.16192680    0.00000000
                                                     2      320.6567800    -1320.28738520    0.00000000
                                                     2       52.8680174     -298.31781350    0.00000000
                                                     2       12.0280128      -87.58370650    0.00000000
                                                     2        3.5238913       -8.14932740    0.00000000
                                      S - G
                                                     0      409.4437358        2.73342180    0.00000000
                                                     1      274.5419231       59.70243290    0.00000000
                                                     2      127.5658570      891.45895500    0.00000000
                                                     2       32.9036631      368.44676560    0.00000000
                                                     2        5.0593880      238.02630900    0.00000000
                                                     2        4.1506556     -107.05564540    0.00000000
                                      P - G
                                                     0      466.1728892        1.88785680    0.00000000
                                                     1      120.7888259       76.01386290    0.00000000
                                                     2       36.4118791      343.55111160    0.00000000
                                                     2        5.6985408      119.49117860    0.00000000
                                      D - G
                                                     0      249.5650763        2.93436780    0.00000000
                                                     1      126.6678585       59.33065710    0.00000000
                                                     2       63.1430586      452.44451940    0.00000000
                                                     2       17.9059470      210.47694790    0.00000000
                                                     2        4.2239373       58.62541120    0.00000000
                                      F - G
                                                     0      121.8158799        3.95342530    0.00000000
                                                     1       60.8757030       53.85551820    0.00000000
                                                     2       31.4767147      247.43051330    0.00000000
                                                     2        9.8811751      127.81879760    0.00000000
                                                     2        2.7319874       15.37720460    0.00000000
    2         17
                                   No pseudopotential on this center.
    3         17
                                   No pseudopotential on this center.
    4         35
                                   No pseudopotential on this center.
    5         35
                                   No pseudopotential on this center.
    6         17
                                   No pseudopotential on this center.
    7         17
                                   No pseudopotential on this center.
 ======================================================================================================
 There are    47 symmetry adapted cartesian basis functions of AG  symmetry.
 There are    13 symmetry adapted cartesian basis functions of B1G symmetry.
 There are    14 symmetry adapted cartesian basis functions of B2G symmetry.
 There are    14 symmetry adapted cartesian basis functions of B3G symmetry.
 There are     5 symmetry adapted cartesian basis functions of AU  symmetry.
 There are    29 symmetry adapted cartesian basis functions of B1U symmetry.
 There are    24 symmetry adapted cartesian basis functions of B2U symmetry.
 There are    24 symmetry adapted cartesian basis functions of B3U symmetry.
 There are    40 symmetry adapted basis functions of AG  symmetry.
 There are    13 symmetry adapted basis functions of B1G symmetry.
 There are    14 symmetry adapted basis functions of B2G symmetry.
 There are    14 symmetry adapted basis functions of B3G symmetry.
 There are     5 symmetry adapted basis functions of AU  symmetry.
 There are    26 symmetry adapted basis functions of B1U symmetry.
 There are    23 symmetry adapted basis functions of B2U symmetry.
 There are    23 symmetry adapted basis functions of B3U symmetry.
   158 basis functions,   351 primitive gaussians,   170 cartesian basis functions
    79 alpha electrons       79 beta electrons
       nuclear repulsion energy      1704.5805300074 Hartrees.
 NAtoms=    7 NActive=    7 NUniq=    3 SFac= 4.00D+00 NAtFMM=   60 NAOKFM=F Big=F
 Integral buffers will be    131072 words long.
 Raffenetti 2 integral format.
 Two-electron integral symmetry is turned on.
 ------------------------------------------------------------------------------
 Polarizable Continuum Model (PCM)
 =================================
 Model                : PCM (using non-symmetric T matrix).
 Atomic radii         : UFF (Universal Force Field).
 Polarization charges : Total charges.
 Charge compensation  : None.
 Solution method      : On-the-fly selection.
 Cavity type          : Scaled VdW (van der Waals Surface) (Alpha=1.100).
 Cavity algorithm     : GePol (No added spheres)
                        Default sphere list used, NSphG=    7.
                        Lebedev-Laikov grids with approx.  5.0 points / Ang**2.
                        Smoothing algorithm: Karplus/York (Gamma=1.0000).
                        Polarization charges: spherical gaussians, with
                                              point-specific exponents (IZeta= 3).
                        Self-potential: point-specific (ISelfS= 7).
                        Self-field    : sphere-specific E.n sum rule (ISelfD= 2).
 1st derivatives      : Analytical E(r).r(x)/FMM algorithm (CHGder, D1EAlg=3).
                        Cavity 1st derivative terms included.
 Solvent              : Water, Eps=  78.355300 Eps(inf)=   1.777849
 ------------------------------------------------------------------------------
 Spheres list:
 ISph  on   Nord     Re0    Alpha      Xe            Ye            Ze
    1  Pt      1    1.3770  1.100      0.000000      0.000000      0.000000
    2  Cl      2    1.9735  1.100      0.000000      2.280000      0.000000
    3  Cl      3    1.9735  1.100      2.280000      0.000000      0.000000
    4  Br      4    2.0945  1.100      0.000000      0.000000      2.430000
    5  Br      5    2.0945  1.100      0.000000      0.000000     -2.430000
    6  Cl      6    1.9735  1.100     -2.280000      0.000000      0.000000
    7  Cl      7    1.9735  1.100      0.000000     -2.280000      0.000000
 ------------------------------------------------------------------------------
 One-electron integrals computed using PRISM.
  16 Symmetry operations used in ECPInt.
 ECPInt:  NShTT=    2080 NPrTT=   11209 LenC2=    1901 LenP2D=    7207.
 LDataN:  DoStor=T MaxTD1= 6 Len=  172
 NBasis=   158 RedAO= T EigKep=  1.05D-02  NBF=    40    13    14    14     5    26    23    23
 NBsUse=   158 1.00D-06 EigRej= -1.00D+00 NBFU=    40    13    14    14     5    26    23    23
 Defaulting to unpruned grid for atomic number  78.
 ExpMin= 2.90D-02 ExpMax= 1.13D+05 ExpMxC= 1.70D+04 IAcc=3 IRadAn=         5 AccDes= 0.00D+00
 Harris functional with IExCor=  402 and IRadAn=       5 diagonalized for initial guess.
 HarFok:  IExCor=  402 AccDes= 0.00D+00 IRadAn=         5 IDoV= 1 UseB2=F ITyADJ=14
 ICtDFT=  3500011 ScaDFX=  1.000000  1.000000  1.000000  1.000000
 Defaulting to unpruned grid for atomic number  78.
 Defaulting to unpruned grid for atomic number  78.
 Defaulting to unpruned grid for atomic number  78.
 Defaulting to unpruned grid for atomic number  78.
 Defaulting to unpruned grid for atomic number  78.
 Defaulting to unpruned grid for atomic number  78.
 Defaulting to unpruned grid for atomic number  78.
 Defaulting to unpruned grid for atomic number  78.
 FoFCou: FMM=F IPFlag=           0 FMFlag=      100000 FMFlg1=           0
         NFxFlg=           0 DoJE=T BraDBF=F KetDBF=T FulRan=T
         wScrn=  0.000000 ICntrl=     500 IOpCl=  0 I1Cent=   200000004 NGrid=           0
         NMat0=    1 NMatS0=      1 NMatT0=    0 NMatD0=    1 NMtDS0=    0 NMtDT0=    0
 Petite list used in FoFCou.
 Initial guess orbital symmetries:
       Occupied  (A2U) (A1G) (A1G) (EU) (EU) (B1G) (A2U) (A1G)
                 (A2U) (A1G) (EU) (EU) (EG) (EG) (A1G) (EU) (EU)
                 (B1G) (A2U) (A1G) (EU) (EU) (B1G) (A1G) (A2U)
                 (EG) (EG) (A2G) (B2U) (EU) (EU) (B2G) (A2U) (A1G)
                 (EU) (EU) (EG) (EG) (A1G) (A2U) (A1G) (EG) (EG)
                 (EU) (EU) (B1G) (B2U) (B2G) (B1U) (A2U) (EU) (EU)
                 (A1G) (A2U) (A1G) (B1G) (EU) (EU) (A1G) (EG) (EG)
                 (A2U) (A1G) (EU) (EU) (B1G) (B2G) (EU) (EU) (A2U)
                 (EG) (EG) (B2U) (EU) (EU) (A2G) (EG) (EG) (B2G)
       Virtual   (A1G) (B1G) (A2U) (EU) (EU) (A1G) (A2U) (EU) (EU)
                 (A1G) (EG) (EG) (B2G) (B1G) (A2U) (B2U) (B1U)
                 (A1G) (B2G) (A2U) (EU) (EU) (EG) (EG) (A1G) (B1G)
                 (EU) (EU) (EG) (EG) (A1G) (B1G) (EU) (EU) (EU)
                 (EU) (A2U) (A2G) (B2U) (EG) (EG) (B1U) (A1U) (B1G)
                 (A1G) (EU) (EU) (B2G) (EU) (EU) (B2U) (EG) (EG)
                 (A1G) (A2U) (A2G) (EU) (EU) (B1G) (A1G) (EG) (EG)
                 (A2U) (B2G) (EU) (EU) (A1G) (B1G) (B1U) (B2U)
                 (B2G) (B1G) (EU) (EU) (EG) (EG) (A2U) (A1G) (A1G)
 The electronic state of the initial guess is 1-A1G.
 Keep R1 ints in memory in symmetry-blocked form, NReq=89148477.
 Requested convergence on RMS density matrix=1.00D-08 within 128 cycles.
 Requested convergence on MAX density matrix=1.00D-06.
 Requested convergence on             energy=1.00D-06.
 No special actions if energy rises.
 Defaulting to unpruned grid for atomic number  78.
 Defaulting to unpruned grid for atomic number  78.
 Defaulting to unpruned grid for atomic number  78.
 Defaulting to unpruned grid for atomic number  78.
 Defaulting to unpruned grid for atomic number  78.
 Defaulting to unpruned grid for atomic number  78.
 Defaulting to unpruned grid for atomic number  78.
 Defaulting to unpruned grid for atomic number  78.
 Inv3:  Mode=1 IEnd=     5274828.
 Iteration    1 A*A^-1 deviation from unit magnitude is 7.11D-15 for    153.
 Iteration    1 A*A^-1 deviation from orthogonality  is 2.80D-15 for    529    153.
 Iteration    1 A^-1*A deviation from unit magnitude is 6.66D-15 for    713.
 Iteration    1 A^-1*A deviation from orthogonality  is 1.94D-15 for    741    357.
 EnCoef did   100 forward-backward iterations
 Error on total polarization charges =  0.01898
 SCF Done:  E(RB3LYP) =  -7107.64349257     A.U. after   12 cycles
            NFock= 12  Conv=0.12D-08     -V/T= 2.0130

 **********************************************************************

            Population analysis using the SCF density.

 **********************************************************************

 Orbital symmetries:
       Occupied  (A2U) (A1G) (A1G) (EU) (EU) (B1G) (A2U) (A1G)
                 (A2U) (A1G) (EU) (EU) (EG) (EG) (A1G) (EU) (EU)
                 (B1G) (A2U) (A1G) (EU) (EU) (B1G) (A1G) (A2U)
                 (A2G) (EG) (EG) (EU) (EU) (B2U) (B2G) (A2U) (A1G)
                 (EU) (EU) (EG) (EG) (A1G) (A2U) (A1G) (EG) (EG)
                 (EU) (EU) (B2G) (B1U) (B1G) (B2U) (EU) (EU) (A2U)
                 (A1G) (B1G) (EU) (EU) (A1G) (A2U) (B1G) (A1G)
                 (B2G) (A1G) (EG) (EG) (EU) (EU) (A2U) (B2U) (EU)
                 (EU) (EU) (EU) (A2U) (EG) (EG) (B2G) (A2G) (EG)
                 (EG)
       Virtual   (A1G) (B1G) (A2U) (EU) (EU) (A1G) (A2U) (EU) (EU)
                 (EG) (EG) (B2G) (A1G) (A1G) (B1G) (A2U) (B2U)
                 (B1U) (A2U) (B2G) (A1G) (EU) (EU) (EG) (EG) (B1G)
                 (EU) (EU) (B1G) (A1G) (EG) (EG) (EU) (EU) (EU)
                 (EU) (A2G) (B2U) (A1G) (A2U) (B1G) (EG) (EG) (EU)
                 (EU) (B1U) (A1U) (B2G) (EU) (EU) (B2U) (EG) (EG)
                 (A1G) (A2G) (A2U) (EU) (EU) (B1G) (A1G) (EG) (EG)
                 (A2U) (B2G) (EU) (EU) (A1G) (B1G) (B1U) (B2U)
                 (B2G) (B1G) (EU) (EU) (EG) (EG) (A2U) (A1G) (A1G)
 The electronic state is 1-A1G.
 Alpha  occ. eigenvalues -- -482.74185-482.74184-101.44449-101.44443-101.44443
 Alpha  occ. eigenvalues -- -101.44434 -62.42350 -62.42349 -56.25535 -56.25534
 Alpha  occ. eigenvalues --  -56.25248 -56.25248 -56.25247 -56.25247  -9.39791
 Alpha  occ. eigenvalues --   -9.39791  -9.39791  -9.39785  -8.64119  -8.64117
 Alpha  occ. eigenvalues --   -7.16589  -7.16589  -7.16588  -7.16586  -7.15752
 Alpha  occ. eigenvalues --   -7.15752  -7.15751  -7.15751  -7.15751  -7.15751
 Alpha  occ. eigenvalues --   -7.15751  -7.15749  -6.47302  -6.47302  -6.46253
 Alpha  occ. eigenvalues --   -6.46253  -6.46253  -6.46253  -4.00922  -2.58758
 Alpha  occ. eigenvalues --   -2.58756  -2.58459  -2.58459  -2.58459  -2.58459
 Alpha  occ. eigenvalues --   -2.57636  -2.57636  -2.57635  -2.57635  -2.22290
 Alpha  occ. eigenvalues --   -2.22290  -2.21993  -0.78090  -0.75453  -0.74867
 Alpha  occ. eigenvalues --   -0.74867  -0.72330  -0.71509  -0.41938  -0.41157
 Alpha  occ. eigenvalues --   -0.40239  -0.39646  -0.39511  -0.39511  -0.32514
 Alpha  occ. eigenvalues --   -0.32514  -0.32274  -0.26872  -0.26602  -0.26602
 Alpha  occ. eigenvalues --   -0.25325  -0.25325  -0.25215  -0.24543  -0.24543
 Alpha  occ. eigenvalues --   -0.24374  -0.24192  -0.23185  -0.23185
 Alpha virt. eigenvalues --   -0.08514  -0.07209   0.05482   0.05902   0.05902
 Alpha virt. eigenvalues --    0.13301   0.25315   0.25777   0.25777   0.36254
 Alpha virt. eigenvalues --    0.36254   0.38322   0.38978   0.48767   0.49731
 Alpha virt. eigenvalues --    0.52053   0.56302   0.57249   0.58032   0.59487
 Alpha virt. eigenvalues --    0.60221   0.61360   0.61360   0.61439   0.61439
 Alpha virt. eigenvalues --    0.61963   0.68985   0.68985   0.69024   0.70258
 Alpha virt. eigenvalues --    0.71588   0.71588   0.72867   0.72867   0.78789
 Alpha virt. eigenvalues --    0.78789   0.79632   0.80408   0.81109   0.81156
 Alpha virt. eigenvalues --    0.82490   0.82609   0.82609   0.82950   0.82950
 Alpha virt. eigenvalues --    0.82977   0.83141   0.84613   0.90476   0.90476
 Alpha virt. eigenvalues --    0.97241   1.00554   1.00554   1.03154   1.09254
 Alpha virt. eigenvalues --    1.09871   1.11810   1.11810   1.14567   1.18401
 Alpha virt. eigenvalues --    1.20915   1.20915   1.27666   1.28225   1.45704
 Alpha virt. eigenvalues --    1.45704   1.45732   1.54886   3.45024   3.45995
 Alpha virt. eigenvalues --    3.47160   3.50961   3.55590   3.55590   3.60127
 Alpha virt. eigenvalues --    3.60127   3.61284   3.79939   6.24985
          Condensed to atoms (all electrons):
               1          2          3          4          5          6
     1  Pt  17.347456   0.219054   0.219054   0.174847   0.174847   0.219054
     2  Cl   0.219054  17.123519  -0.017272  -0.022686  -0.022686  -0.017272
     3  Cl   0.219054  -0.017272  17.123519  -0.022686  -0.022686  -0.001891
     4  Br   0.174847  -0.022686  -0.022686  35.112595  -0.004916  -0.022686
     5  Br   0.174847  -0.022686  -0.022686  -0.004916  35.112595  -0.022686
     6  Cl   0.219054  -0.017272  -0.001891  -0.022686  -0.022686  17.123519
     7  Cl   0.219054  -0.001891  -0.017272  -0.022686  -0.022686  -0.017272
               7
     1  Pt   0.219054
     2  Cl  -0.001891
     3  Cl  -0.017272
     4  Br  -0.022686
     5  Br  -0.022686
     6  Cl  -0.017272
     7  Cl  17.123519
 Mulliken charges:
               1
     1  Pt  -0.573364
     2  Cl  -0.260767
     3  Cl  -0.260767
     4  Br  -0.191784
     5  Br  -0.191784
     6  Cl  -0.260767
     7  Cl  -0.260767
 Sum of Mulliken charges =  -2.00000
 Mulliken charges with hydrogens summed into heavy atoms:
               1
     1  Pt  -0.573364
     2  Cl  -0.260767
     3  Cl  -0.260767
     4  Br  -0.191784
     5  Br  -0.191784
     6  Cl  -0.260767
     7  Cl  -0.260767
 Electronic spatial extent (au):  <R**2>=           3045.1008
 Charge=             -2.0000 electrons
 Dipole moment (field-independent basis, Debye):
    X=              0.0000    Y=              0.0000    Z=              0.0000  Tot=              0.0000
 Quadrupole moment (field-independent basis, Debye-Ang):
   XX=           -137.0379   YY=           -137.0379   ZZ=           -138.4275
   XY=              0.0000   XZ=              0.0000   YZ=              0.0000
 Traceless Quadrupole moment (field-independent basis, Debye-Ang):
   XX=              0.4632   YY=              0.4632   ZZ=             -0.9264
   XY=              0.0000   XZ=              0.0000   YZ=              0.0000
 Octapole moment (field-independent basis, Debye-Ang**2):
  XXX=              0.0000  YYY=              0.0000  ZZZ=              0.0000  XYY=              0.0000
  XXY=              0.0000  XXZ=              0.0000  XZZ=              0.0000  YZZ=              0.0000
  YYZ=              0.0000  XYZ=              0.0000
 Hexadecapole moment (field-independent basis, Debye-Ang**3):
 XXXX=          -1050.9177 YYYY=          -1050.9177 ZZZZ=          -1583.8937 XXXY=              0.0000
 XXXZ=              0.0000 YYYX=              0.0000 YYYZ=              0.0000 ZZZX=              0.0000
 ZZZY=              0.0000 XXYY=           -333.7593 XXZZ=           -427.0365 YYZZ=           -427.0365
 XXYZ=              0.0000 YYXZ=              0.0000 ZZXY=              0.0000
 N-N= 1.704580530007D+03 E-N=-2.038900715005D+04  KE= 7.016378171499D+03
 Symmetry AG   KE= 2.604389232741D+03
 Symmetry B1G  KE= 1.391250340800D+02
 Symmetry B2G  KE= 3.831727680290D+02
 Symmetry B3G  KE= 3.831727680290D+02
 Symmetry AU   KE= 4.288065367446D+01
 Symmetry B1U  KE= 1.959959839995D+03
 Symmetry B2U  KE= 7.518389374752D+02
 Symmetry B3U  KE= 7.518389374752D+02
  16 Symmetry operations used in ECPInt.
 ECPInt:  NShTT=    2080 NPrTT=   11209 LenC2=    1901 LenP2D=    7207.
 LDataN:  DoStor=T MaxTD1= 7 Len=  274
 D1PCM: PCM CHGder 1st derivatives, ID1Alg=3 FixD1E=F DoIter=F DoCFld=F I1PDM=0.
 Calling FoFJK, ICntrl=      2127 FMM=F ISym2X=1 I1Cent= 0 IOpClX= 0 NMat=1 NMatS=1 NMatT=0.
 Defaulting to unpruned grid for atomic number  78.
 Defaulting to unpruned grid for atomic number  78.
 Defaulting to unpruned grid for atomic number  78.
 Defaulting to unpruned grid for atomic number  78.
 Defaulting to unpruned grid for atomic number  78.
 Defaulting to unpruned grid for atomic number  78.
 Defaulting to unpruned grid for atomic number  78.
 Defaulting to unpruned grid for atomic number  78.
 ***** Axes restored to original set *****
 -------------------------------------------------------------------
 Center     Atomic                   Forces (Hartrees/Bohr)
 Number     Number              X              Y              Z
 -------------------------------------------------------------------
      1       78           0.000000000    0.000000000    0.000000000
      2       17           0.000000000   -0.042469397    0.000000000
      3       17           0.042469397    0.000000000    0.000000000
      4       35           0.000000000    0.000000000   -0.035298095
      5       35           0.000000000    0.000000000    0.035298095
      6       17          -0.042469397    0.000000000    0.000000000
      7       17           0.000000000    0.042469397    0.000000000
 -------------------------------------------------------------------
 Cartesian Forces:  Max     0.042469397 RMS     0.021499180

 GradGradGradGradGradGradGradGradGradGradGradGradGradGradGradGradGradGrad
 Berny optimization.
 FormGI is forming the generalized inverse of G from B-inverse, IUseBI=4.
 Internal  Forces:  Max     0.042469397 RMS     0.017416326
 Search for a local minimum.
 Step number   1 out of a maximum of   42
 All quantities printed in internal units (Hartrees-Bohrs-Radians)
 Mixed Optimization -- RFO/linear search
 Second derivative matrix not updated -- first step.
 ITU=  0
     Eigenvalues ---    0.07780   0.08487   0.08487   0.09380   0.10138
     Eigenvalues ---    0.12615   0.12615   0.19389   0.19509   0.19509
     Eigenvalues ---    0.20546   0.22001   0.22001   0.22001   0.22001
 RFO step:  Lambda=-3.85662120D-02 EMin= 7.78004210D-02
 Linear search not attempted -- first point.
 Maximum step size (   0.300) exceeded in Quadratic search.
    -- Step size scaled by   0.766
 Iteration  1 RMS(Cart)=  0.05303301 RMS(Int)=  0.00000000
 Iteration  2 RMS(Cart)=  0.00000000 RMS(Int)=  0.00000000
 ClnCor:  largest displacement from symmetrization is 2.25D-12 for atom     5.
 Variable       Old X    -DE/DX   Delta X   Delta X   Delta X     New X
                                 (Linear)    (Quad)   (Total)
    R1        4.30858   0.04247   0.00000   0.12574   0.12574   4.43432
    R2        4.30858   0.04247   0.00000   0.12574   0.12574   4.43432
    R3        4.59203   0.03530   0.00000   0.11566   0.11566   4.70769
    R4        4.59203   0.03530   0.00000   0.11566   0.11566   4.70769
    R5        4.30858   0.04247   0.00000   0.12574   0.12574   4.43432
    R6        4.30858   0.04247   0.00000   0.12574   0.12574   4.43432
    A1        1.57080   0.00000   0.00000   0.00000   0.00000   1.57080
    A2        1.57080   0.00000   0.00000   0.00000   0.00000   1.57080
    A3        1.57080   0.00000   0.00000   0.00000   0.00000   1.57080
    A4        1.57080   0.00000   0.00000   0.00000   0.00000   1.57080
    A5        1.57080   0.00000   0.00000   0.00000   0.00000   1.57080
    A6        1.57080   0.00000   0.00000   0.00000   0.00000   1.57080
    A7        1.57080   0.00000   0.00000   0.00000   0.00000   1.57080
    A8        1.57080   0.00000   0.00000   0.00000   0.00000   1.57080
    A9        1.57080   0.00000   0.00000   0.00000   0.00000   1.57080
   A10        1.57080   0.00000   0.00000   0.00000   0.00000   1.57080
   A11        1.57080   0.00000   0.00000   0.00000   0.00000   1.57080
   A12        1.57080   0.00000   0.00000   0.00000   0.00000   1.57080
   A13        3.14159   0.00000   0.00000   0.00000   0.00000   3.14159
   A14        3.14159   0.00000   0.00000   0.00000   0.00000   3.14159
   A15        3.14159   0.00000   0.00000   0.00000   0.00000   3.14159
   A16        3.14159   0.00000   0.00000   0.00000   0.00000   3.14159
   A17        3.14159   0.00000   0.00000   0.00000   0.00000   3.14159
   A18        3.14159   0.00000   0.00000   0.00000   0.00000   3.14159
    D1       -1.57080   0.00000   0.00000   0.00000   0.00000  -1.57080
    D2        1.57080   0.00000   0.00000   0.00000   0.00000   1.57080
    D3       -1.57080   0.00000   0.00000   0.00000   0.00000  -1.57080
    D4        1.57080   0.00000   0.00000   0.00000   0.00000   1.57080
    D5        1.57080   0.00000   0.00000   0.00000   0.00000   1.57080
    D6       -1.57080   0.00000   0.00000   0.00000   0.00000  -1.57080
    D7        1.57080   0.00000   0.00000   0.00000   0.00000   1.57080
    D8       -1.57080   0.00000   0.00000   0.00000   0.00000  -1.57080
         Item               Value     Threshold  Converged?
 Maximum Force            0.042469     0.000450     NO 
 RMS     Force            0.017416     0.000300     NO 
 Maximum Displacement     0.125745     0.001800     NO 
 RMS     Displacement     0.053033     0.001200     NO 
 Predicted change in Energy=-1.995907D-02
 GradGradGradGradGradGradGradGradGradGradGradGradGradGradGradGradGradGrad

                          Input orientation:                          
 ---------------------------------------------------------------------
 Center     Atomic      Atomic             Coordinates (Angstroms)
 Number     Number       Type             X           Y           Z
 ---------------------------------------------------------------------
      1         78           0       -0.319549    0.338346    0.000000
      2         17           0       -0.319549   -2.008195    0.000000
      3         17           0        2.026992    0.338346    0.000000
      4         35           0       -0.319549    0.338346   -2.491203
      5         35           0       -0.319549    0.338346    2.491203
      6         17           0       -2.666090    0.338346    0.000000
      7         17           0       -0.319549    2.684887    0.000000
 ---------------------------------------------------------------------
                    Distance matrix (angstroms):
                    1          2          3          4          5
     1  Pt   0.000000
     2  Cl   2.346541   0.000000
     3  Cl   2.346541   3.318510   0.000000
     4  Br   2.491203   3.422331   3.422331   0.000000
     5  Br   2.491203   3.422331   3.422331   4.982407   0.000000
     6  Cl   2.346541   3.318510   4.693082   3.422331   3.422331
     7  Cl   2.346541   4.693082   3.318510   3.422331   3.422331
                    6          7
     6  Cl   0.000000
     7  Cl   3.318510   0.000000
 Stoichiometry    Br2Cl4Pt(2-)
 Framework group  D4H[O(Pt),C4(Br.Br),2C2'(Cl.Cl)]
 Deg. of freedom     2
 Full point group                 D4H     NOp  16
 Largest Abelian subgroup         D2H     NOp   8
 Largest concise Abelian subgroup D2H     NOp   8
                         Standard orientation:                         
 ---------------------------------------------------------------------
 Center     Atomic      Atomic             Coordinates (Angstroms)
 Number     Number       Type             X           Y           Z
 ---------------------------------------------------------------------
      1         78           0        0.000000    0.000000    0.000000
      2         17           0        0.000000    2.346541    0.000000
      3         17           0        2.346541    0.000000    0.000000
      4         35           0        0.000000    0.000000    2.491203
      5         35           0        0.000000    0.000000   -2.491203
      6         17           0       -2.346541    0.000000    0.000000
      7         17           0        0.000000   -2.346541    0.000000
 ---------------------------------------------------------------------
 Rotational constants (GHZ):      0.6561747      0.3703376      0.3703376
 Basis read from rwf:  (5D, 7F)
 Pseudo-potential data read from rwf file.
 There are    47 symmetry adapted cartesian basis functions of AG  symmetry.
 There are    13 symmetry adapted cartesian basis functions of B1G symmetry.
 There are    14 symmetry adapted cartesian basis functions of B2G symmetry.
 There are    14 symmetry adapted cartesian basis functions of B3G symmetry.
 There are     5 symmetry adapted cartesian basis functions of AU  symmetry.
 There are    29 symmetry adapted cartesian basis functions of B1U symmetry.
 There are    24 symmetry adapted cartesian basis functions of B2U symmetry.
 There are    24 symmetry adapted cartesian basis functions of B3U symmetry.
 There are    40 symmetry adapted basis functions of AG  symmetry.
 There are    13 symmetry adapted basis functions of B1G symmetry.
 There are    14 symmetry adapted basis functions of B2G symmetry.
 There are    14 symmetry adapted basis functions of B3G symmetry.
 There are     5 symmetry adapted basis functions of AU  symmetry.
 There are    26 symmetry adapted basis functions of B1U symmetry.
 There are    23 symmetry adapted basis functions of B2U symmetry.
 There are    23 symmetry adapted basis functions of B3U symmetry.
   158 basis functions,   351 primitive gaussians,   170 cartesian basis functions
    79 alpha electrons       79 beta electrons
       nuclear repulsion energy      1659.3079588935 Hartrees.
 NAtoms=    7 NActive=    7 NUniq=    3 SFac= 4.00D+00 NAtFMM=   60 NAOKFM=F Big=F
 Integral buffers will be    131072 words long.
 Raffenetti 2 integral format.
 Two-electron integral symmetry is turned on.
 ------------------------------------------------------------------------------
 Polarizable Continuum Model (PCM)
 =================================
 Model                : PCM (using non-symmetric T matrix).
 Atomic radii         : UFF (Universal Force Field).
 Polarization charges : Total charges.
 Charge compensation  : None.
 Solution method      : On-the-fly selection.
 Cavity type          : Scaled VdW (van der Waals Surface) (Alpha=1.100).
 Cavity algorithm     : GePol (No added spheres)
                        Default sphere list used, NSphG=    7.
                        Lebedev-Laikov grids with approx.  5.0 points / Ang**2.
                        Smoothing algorithm: Karplus/York (Gamma=1.0000).
                        Polarization charges: spherical gaussians, with
                                              point-specific exponents (IZeta= 3).
                        Self-potential: point-specific (ISelfS= 7).
                        Self-field    : sphere-specific E.n sum rule (ISelfD= 2).
 1st derivatives      : Analytical E(r).r(x)/FMM algorithm (CHGder, D1EAlg=3).
                        Cavity 1st derivative terms included.
 Solvent              : Water, Eps=  78.355300 Eps(inf)=   1.777849
 ------------------------------------------------------------------------------
 Spheres list:
 ISph  on   Nord     Re0    Alpha      Xe            Ye            Ze
    1  Pt      1    1.3770  1.100      0.000000      0.000000      0.000000
    2  Cl      2    1.9735  1.100      0.000000      2.346541      0.000000
    3  Cl      3    1.9735  1.100      2.346541      0.000000      0.000000
    4  Br      4    2.0945  1.100      0.000000      0.000000      2.491203
    5  Br      5    2.0945  1.100      0.000000      0.000000     -2.491203
    6  Cl      6    1.9735  1.100     -2.346541      0.000000      0.000000
    7  Cl      7    1.9735  1.100      0.000000     -2.346541      0.000000
 ------------------------------------------------------------------------------
 One-electron integrals computed using PRISM.
  16 Symmetry operations used in ECPInt.
 ECPInt:  NShTT=    2080 NPrTT=   11209 LenC2=    1891 LenP2D=    7143.
 LDataN:  DoStor=T MaxTD1= 6 Len=  172
 NBasis=   158 RedAO= T EigKep=  1.21D-02  NBF=    40    13    14    14     5    26    23    23
 NBsUse=   158 1.00D-06 EigRej= -1.00D+00 NBFU=    40    13    14    14     5    26    23    23
 Defaulting to unpruned grid for atomic number  78.
 Initial guess from the checkpoint file:  "/home/scr/diego/Gau-3431.chk"
 B after Tr=     0.000000    0.000000    0.000000
         Rot=    1.000000    0.000000    0.000000    0.000000 Ang=   0.00 deg.
 Initial guess orbital symmetries:
       Occupied  (A2U) (A1G) (A1G) (EU) (EU) (B1G) (A2U) (A1G)
                 (A2U) (A1G) (EU) (EU) (EG) (EG) (A1G) (EU) (EU)
                 (B1G) (A2U) (A1G) (EU) (EU) (B1G) (A1G) (A2U)
                 (A2G) (EG) (EG) (EU) (EU) (B2U) (B2G) (A2U) (A1G)
                 (EU) (EU) (EG) (EG) (A1G) (A2U) (A1G) (EG) (EG)
                 (EU) (EU) (B2G) (B1U) (B1G) (B2U) (EU) (EU) (A2U)
                 (A1G) (B1G) (EU) (EU) (A1G) (A2U) (B1G) (A1G)
                 (B2G) (A1G) (EG) (EG) (EU) (EU) (A2U) (B2U) (EU)
                 (EU) (EU) (EU) (A2U) (EG) (EG) (B2G) (A2G) (EG)
                 (EG)
       Virtual   (A1G) (B1G) (A1G) (A1G) (A1G) (B1G) (A1G) (B1G)
                 (A1G) (A1G) (B1G) (A1G) (A1G) (A1G) (B1G) (A1G)
                 (B1G) (B1G) (A1G) (B1G) (B2G) (B2G) (B2G) (A2G)
                 (B2G) (A2G) (B2G) (EG) (EG) (EG) (EG) (EG) (EG)
                 (EG) (EG) (EG) (EG) (EG) (EG) (EG) (EG) (B1U)
                 (B1U) (A1U) (B1U) (A2U) (A2U) (A2U) (A2U) (B2U)
                 (A2U) (B2U) (A2U) (A2U) (B2U) (B2U) (A2U) (EU)
                 (EU) (EU) (EU) (EU) (EU) (EU) (EU) (EU) (EU) (EU)
                 (EU) (EU) (EU) (EU) (EU) (EU) (EU) (EU) (EU) (EU)
                 (EU)
 ExpMin= 2.90D-02 ExpMax= 1.13D+05 ExpMxC= 1.70D+04 IAcc=3 IRadAn=         5 AccDes= 0.00D+00
 Harris functional with IExCor=  402 and IRadAn=       5 diagonalized for initial guess.
 HarFok:  IExCor=  402 AccDes= 0.00D+00 IRadAn=         5 IDoV= 1 UseB2=F ITyADJ=14
 ICtDFT=  3500011 ScaDFX=  1.000000  1.000000  1.000000  1.000000
 Defaulting to unpruned grid for atomic number  78.
 Defaulting to unpruned grid for atomic number  78.
 Defaulting to unpruned grid for atomic number  78.
 Defaulting to unpruned grid for atomic number  78.
 Defaulting to unpruned grid for atomic number  78.
 Defaulting to unpruned grid for atomic number  78.
 Defaulting to unpruned grid for atomic number  78.
 Defaulting to unpruned grid for atomic number  78.
 FoFCou: FMM=F IPFlag=           0 FMFlag=      100000 FMFlg1=           0
         NFxFlg=           0 DoJE=T BraDBF=F KetDBF=T FulRan=T
         wScrn=  0.000000 ICntrl=     500 IOpCl=  0 I1Cent=   200000004 NGrid=           0
         NMat0=    1 NMatS0=      1 NMatT0=    0 NMatD0=    1 NMtDS0=    0 NMtDT0=    0
 Petite list used in FoFCou.
 Keep R1 ints in memory in symmetry-blocked form, NReq=89148477.
 Requested convergence on RMS density matrix=1.00D-08 within 128 cycles.
 Requested convergence on MAX density matrix=1.00D-06.
 Requested convergence on             energy=1.00D-06.
 No special actions if energy rises.
 Defaulting to unpruned grid for atomic number  78.
 Defaulting to unpruned grid for atomic number  78.
 Defaulting to unpruned grid for atomic number  78.
 Defaulting to unpruned grid for atomic number  78.
 Defaulting to unpruned grid for atomic number  78.
 Defaulting to unpruned grid for atomic number  78.
 Defaulting to unpruned grid for atomic number  78.
 Defaulting to unpruned grid for atomic number  78.
 Inv3:  Mode=1 IEnd=     5467500.
 Iteration    1 A*A^-1 deviation from unit magnitude is 6.77D-15 for    680.
 Iteration    1 A*A^-1 deviation from orthogonality  is 4.23D-15 for    790    226.
 Iteration    1 A^-1*A deviation from unit magnitude is 6.00D-15 for    565.
 Iteration    1 A^-1*A deviation from orthogonality  is 3.85D-15 for    856     25.
 Error on total polarization charges =  0.01819
 SCF Done:  E(RB3LYP) =  -7107.66410851     A.U. after    9 cycles
            NFock=  9  Conv=0.64D-08     -V/T= 2.0131
  16 Symmetry operations used in ECPInt.
 ECPInt:  NShTT=    2080 NPrTT=   11209 LenC2=    1891 LenP2D=    7143.
 LDataN:  DoStor=T MaxTD1= 7 Len=  274
 D1PCM: PCM CHGder 1st derivatives, ID1Alg=3 FixD1E=F DoIter=F DoCFld=F I1PDM=0.
 Calling FoFJK, ICntrl=      2127 FMM=F ISym2X=1 I1Cent= 0 IOpClX= 0 NMat=1 NMatS=1 NMatT=0.
 Defaulting to unpruned grid for atomic number  78.
 Defaulting to unpruned grid for atomic number  78.
 Defaulting to unpruned grid for atomic number  78.
 Defaulting to unpruned grid for atomic number  78.
 Defaulting to unpruned grid for atomic number  78.
 Defaulting to unpruned grid for atomic number  78.
 Defaulting to unpruned grid for atomic number  78.
 Defaulting to unpruned grid for atomic number  78.
 ***** Axes restored to original set *****
 -------------------------------------------------------------------
 Center     Atomic                   Forces (Hartrees/Bohr)
 Number     Number              X              Y              Z
 -------------------------------------------------------------------
      1       78           0.000000000    0.000000000    0.000000000
      2       17           0.000000000   -0.017530278    0.000000000
      3       17           0.017530278    0.000000000    0.000000000
      4       35           0.000000000    0.000000000   -0.016027317
      5       35           0.000000000    0.000000000    0.016027317
      6       17          -0.017530278    0.000000000    0.000000000
      7       17           0.000000000    0.017530278    0.000000000
 -------------------------------------------------------------------
 Cartesian Forces:  Max     0.017530278 RMS     0.009110414

 GradGradGradGradGradGradGradGradGradGradGradGradGradGradGradGradGradGrad
 Berny optimization.
 Using GEDIIS/GDIIS optimizer.
 FormGI is forming the generalized inverse of G from B-inverse, IUseBI=4.
 Internal  Forces:  Max     0.017530278 RMS     0.007380279
 Search for a local minimum.
 Step number   2 out of a maximum of   42
 All quantities printed in internal units (Hartrees-Bohrs-Radians)
 Mixed Optimization -- RFO/linear search
 Update second derivatives using D2CorX and points    1    2
 DE= -2.06D-02 DEPred=-2.00D-02 R= 1.03D+00
 TightC=F SS=  1.41D+00  RLast= 3.00D-01 DXNew= 5.0454D-01 9.0000D-01
 Trust test= 1.03D+00 RLast= 3.00D-01 DXMaxT set to 5.05D-01
 ITU=  1  0
 Use linear search instead of GDIIS.
     Eigenvalues ---    0.07780   0.08487   0.08487   0.09380   0.10138
     Eigenvalues ---    0.12615   0.12615   0.17984   0.19389   0.19509
     Eigenvalues ---    0.20546   0.21207   0.22001   0.22001   0.22001
 RFO step:  Lambda=-9.01731914D-05 EMin= 7.78004210D-02
 Quartic linear search produced a step of  1.00784.
 Iteration  1 RMS(Cart)=  0.05386483 RMS(Int)=  0.00000000
 Iteration  2 RMS(Cart)=  0.00000000 RMS(Int)=  0.00000000
 ClnCor:  largest displacement from symmetrization is 7.04D-12 for atom     5.
 Variable       Old X    -DE/DX   Delta X   Delta X   Delta X     New X
                                 (Linear)    (Quad)   (Total)
    R1        4.43432   0.01753   0.12673  -0.00508   0.12165   4.55597
    R2        4.43432   0.01753   0.12673  -0.00508   0.12165   4.55597
    R3        4.70769   0.01603   0.11656   0.01315   0.12971   4.83741
    R4        4.70769   0.01603   0.11656   0.01315   0.12971   4.83741
    R5        4.43432   0.01753   0.12673  -0.00508   0.12165   4.55597
    R6        4.43432   0.01753   0.12673  -0.00508   0.12165   4.55597
    A1        1.57080   0.00000   0.00000   0.00000   0.00000   1.57080
    A2        1.57080   0.00000   0.00000   0.00000   0.00000   1.57080
    A3        1.57080   0.00000   0.00000   0.00000   0.00000   1.57080
    A4        1.57080   0.00000   0.00000   0.00000   0.00000   1.57080
    A5        1.57080   0.00000   0.00000   0.00000   0.00000   1.57080
    A6        1.57080   0.00000   0.00000   0.00000   0.00000   1.57080
    A7        1.57080   0.00000   0.00000   0.00000   0.00000   1.57080
    A8        1.57080   0.00000   0.00000   0.00000   0.00000   1.57080
    A9        1.57080   0.00000   0.00000   0.00000   0.00000   1.57080
   A10        1.57080   0.00000   0.00000   0.00000   0.00000   1.57080
   A11        1.57080   0.00000   0.00000   0.00000   0.00000   1.57080
   A12        1.57080   0.00000   0.00000   0.00000   0.00000   1.57080
   A13        3.14159   0.00000   0.00000   0.00000   0.00000   3.14159
   A14        3.14159   0.00000   0.00000   0.00000   0.00000   3.14159
   A15        3.14159   0.00000   0.00000   0.00000   0.00000   3.14159
   A16        3.14159   0.00000   0.00000   0.00000   0.00000   3.14159
   A17        3.14159   0.00000   0.00000   0.00000   0.00000   3.14159
   A18        3.14159   0.00000   0.00000   0.00000   0.00000   3.14159
    D1       -1.57080   0.00000   0.00000   0.00000   0.00000  -1.57080
    D2        1.57080   0.00000   0.00000   0.00000   0.00000   1.57080
    D3       -1.57080   0.00000   0.00000   0.00000   0.00000  -1.57080
    D4        1.57080   0.00000   0.00000   0.00000   0.00000   1.57080
    D5        1.57080   0.00000   0.00000   0.00000   0.00000   1.57080
    D6       -1.57080   0.00000   0.00000   0.00000   0.00000  -1.57080
    D7        1.57080   0.00000   0.00000   0.00000   0.00000   1.57080
    D8       -1.57080   0.00000   0.00000   0.00000   0.00000  -1.57080
         Item               Value     Threshold  Converged?
 Maximum Force            0.017530     0.000450     NO 
 RMS     Force            0.007380     0.000300     NO 
 Maximum Displacement     0.129713     0.001800     NO 
 RMS     Displacement     0.053865     0.001200     NO 
 Predicted change in Energy=-4.008571D-03
 GradGradGradGradGradGradGradGradGradGradGradGradGradGradGradGradGradGrad

                          Input orientation:                          
 ---------------------------------------------------------------------
 Center     Atomic      Atomic             Coordinates (Angstroms)
 Number     Number       Type             X           Y           Z
 ---------------------------------------------------------------------
      1         78           0       -0.319549    0.338346    0.000000
      2         17           0       -0.319549   -2.072569    0.000000
      3         17           0        2.091366    0.338346    0.000000
      4         35           0       -0.319549    0.338346   -2.559845
      5         35           0       -0.319549    0.338346    2.559845
      6         17           0       -2.730464    0.338346    0.000000
      7         17           0       -0.319549    2.749261    0.000000
 ---------------------------------------------------------------------
                    Distance matrix (angstroms):
                    1          2          3          4          5
     1  Pt   0.000000
     2  Cl   2.410915   0.000000
     3  Cl   2.410915   3.409549   0.000000
     4  Br   2.559845   3.516435   3.516435   0.000000
     5  Br   2.559845   3.516435   3.516435   5.119689   0.000000
     6  Cl   2.410915   3.409549   4.821830   3.516435   3.516435
     7  Cl   2.410915   4.821830   3.409549   3.516435   3.516435
                    6          7
     6  Cl   0.000000
     7  Cl   3.409549   0.000000
 Stoichiometry    Br2Cl4Pt(2-)
 Framework group  D4H[O(Pt),C4(Br.Br),2C2'(Cl.Cl)]
 Deg. of freedom     2
 Full point group                 D4H     NOp  16
 Largest Abelian subgroup         D2H     NOp   8
 Largest concise Abelian subgroup D2H     NOp   8
                         Standard orientation:                         
 ---------------------------------------------------------------------
 Center     Atomic      Atomic             Coordinates (Angstroms)
 Number     Number       Type             X           Y           Z
 ---------------------------------------------------------------------
      1         78           0        0.000000    0.000000    0.000000
      2         17           0        0.000000    2.410915    0.000000
      3         17           0        2.410915    0.000000    0.000000
      4         35           0        0.000000    0.000000    2.559845
      5         35           0        0.000000    0.000000   -2.559845
      6         17           0       -2.410915    0.000000    0.000000
      7         17           0        0.000000   -2.410915    0.000000
 ---------------------------------------------------------------------
 Rotational constants (GHZ):      0.6216013      0.3507660      0.3507660
 Basis read from rwf:  (5D, 7F)
 Pseudo-potential data read from rwf file.
 There are    47 symmetry adapted cartesian basis functions of AG  symmetry.
 There are    13 symmetry adapted cartesian basis functions of B1G symmetry.
 There are    14 symmetry adapted cartesian basis functions of B2G symmetry.
 There are    14 symmetry adapted cartesian basis functions of B3G symmetry.
 There are     5 symmetry adapted cartesian basis functions of AU  symmetry.
 There are    29 symmetry adapted cartesian basis functions of B1U symmetry.
 There are    24 symmetry adapted cartesian basis functions of B2U symmetry.
 There are    24 symmetry adapted cartesian basis functions of B3U symmetry.
 There are    40 symmetry adapted basis functions of AG  symmetry.
 There are    13 symmetry adapted basis functions of B1G symmetry.
 There are    14 symmetry adapted basis functions of B2G symmetry.
 There are    14 symmetry adapted basis functions of B3G symmetry.
 There are     5 symmetry adapted basis functions of AU  symmetry.
 There are    26 symmetry adapted basis functions of B1U symmetry.
 There are    23 symmetry adapted basis functions of B2U symmetry.
 There are    23 symmetry adapted basis functions of B3U symmetry.
   158 basis functions,   351 primitive gaussians,   170 cartesian basis functions
    79 alpha electrons       79 beta electrons
       nuclear repulsion energy      1614.9131452145 Hartrees.
 NAtoms=    7 NActive=    7 NUniq=    3 SFac= 4.00D+00 NAtFMM=   60 NAOKFM=F Big=F
 Integral buffers will be    131072 words long.
 Raffenetti 2 integral format.
 Two-electron integral symmetry is turned on.
 ------------------------------------------------------------------------------
 Polarizable Continuum Model (PCM)
 =================================
 Model                : PCM (using non-symmetric T matrix).
 Atomic radii         : UFF (Universal Force Field).
 Polarization charges : Total charges.
 Charge compensation  : None.
 Solution method      : On-the-fly selection.
 Cavity type          : Scaled VdW (van der Waals Surface) (Alpha=1.100).
 Cavity algorithm     : GePol (No added spheres)
                        Default sphere list used, NSphG=    7.
                        Lebedev-Laikov grids with approx.  5.0 points / Ang**2.
                        Smoothing algorithm: Karplus/York (Gamma=1.0000).
                        Polarization charges: spherical gaussians, with
                                              point-specific exponents (IZeta= 3).
                        Self-potential: point-specific (ISelfS= 7).
                        Self-field    : sphere-specific E.n sum rule (ISelfD= 2).
 1st derivatives      : Analytical E(r).r(x)/FMM algorithm (CHGder, D1EAlg=3).
                        Cavity 1st derivative terms included.
 Solvent              : Water, Eps=  78.355300 Eps(inf)=   1.777849
 ------------------------------------------------------------------------------
 Spheres list:
 ISph  on   Nord     Re0    Alpha      Xe            Ye            Ze
    1  Pt      1    1.3770  1.100      0.000000      0.000000      0.000000
    2  Cl      2    1.9735  1.100      0.000000      2.410915      0.000000
    3  Cl      3    1.9735  1.100      2.410915      0.000000      0.000000
    4  Br      4    2.0945  1.100      0.000000      0.000000      2.559845
    5  Br      5    2.0945  1.100      0.000000      0.000000     -2.559845
    6  Cl      6    1.9735  1.100     -2.410915      0.000000      0.000000
    7  Cl      7    1.9735  1.100      0.000000     -2.410915      0.000000
 ------------------------------------------------------------------------------
 One-electron integrals computed using PRISM.
  16 Symmetry operations used in ECPInt.
 ECPInt:  NShTT=    2080 NPrTT=   11209 LenC2=    1879 LenP2D=    7079.
 LDataN:  DoStor=T MaxTD1= 6 Len=  172
 NBasis=   158 RedAO= T EigKep=  1.41D-02  NBF=    40    13    14    14     5    26    23    23
 NBsUse=   158 1.00D-06 EigRej= -1.00D+00 NBFU=    40    13    14    14     5    26    23    23
 Defaulting to unpruned grid for atomic number  78.
 Initial guess from the checkpoint file:  "/home/scr/diego/Gau-3431.chk"
 B after Tr=     0.000000    0.000000    0.000000
         Rot=    1.000000    0.000000    0.000000    0.000000 Ang=   0.00 deg.
 Initial guess orbital symmetries:
       Occupied  (A2U) (A1G) (A1G) (EU) (EU) (B1G) (A2U) (A1G)
                 (A2U) (A1G) (EU) (EU) (EG) (EG) (A1G) (EU) (EU)
                 (B1G) (A2U) (A1G) (EU) (EU) (B1G) (A1G) (A2U)
                 (A2G) (EG) (EG) (EU) (EU) (B2U) (B2G) (A2U) (A1G)
                 (EU) (EU) (EG) (EG) (A1G) (A2U) (A1G) (EG) (EG)
                 (EU) (EU) (B2G) (B1U) (B1G) (B2U) (EU) (EU) (A2U)
                 (A1G) (B1G) (EU) (EU) (A1G) (A2U) (B1G) (A1G)
                 (A1G) (B2G) (EG) (EG) (EU) (EU) (A2U) (B2U) (EU)
                 (EU) (A2U) (EU) (EU) (EG) (EG) (B2G) (A2G) (EG)
                 (EG)
       Virtual   (A1G) (B1G) (A1G) (A1G) (A1G) (B1G) (A1G) (A1G)
                 (B1G) (A1G) (B1G) (A1G) (A1G) (A1G) (B1G) (A1G)
                 (B1G) (B1G) (B1G) (A1G) (B2G) (B2G) (B2G) (A2G)
                 (B2G) (A2G) (B2G) (EG) (EG) (EG) (EG) (EG) (EG)
                 (EG) (EG) (EG) (EG) (EG) (EG) (EG) (EG) (B1U)
                 (B1U) (A1U) (B1U) (A2U) (A2U) (A2U) (A2U) (B2U)
                 (A2U) (B2U) (A2U) (A2U) (B2U) (A2U) (B2U) (EU)
                 (EU) (EU) (EU) (EU) (EU) (EU) (EU) (EU) (EU) (EU)
                 (EU) (EU) (EU) (EU) (EU) (EU) (EU) (EU) (EU) (EU)
                 (EU)
 ExpMin= 2.90D-02 ExpMax= 1.13D+05 ExpMxC= 1.70D+04 IAcc=3 IRadAn=         5 AccDes= 0.00D+00
 Harris functional with IExCor=  402 and IRadAn=       5 diagonalized for initial guess.
 HarFok:  IExCor=  402 AccDes= 0.00D+00 IRadAn=         5 IDoV= 1 UseB2=F ITyADJ=14
 ICtDFT=  3500011 ScaDFX=  1.000000  1.000000  1.000000  1.000000
 Defaulting to unpruned grid for atomic number  78.
 Defaulting to unpruned grid for atomic number  78.
 Defaulting to unpruned grid for atomic number  78.
 Defaulting to unpruned grid for atomic number  78.
 Defaulting to unpruned grid for atomic number  78.
 Defaulting to unpruned grid for atomic number  78.
 Defaulting to unpruned grid for atomic number  78.
 Defaulting to unpruned grid for atomic number  78.
 FoFCou: FMM=F IPFlag=           0 FMFlag=      100000 FMFlg1=           0
         NFxFlg=           0 DoJE=T BraDBF=F KetDBF=T FulRan=T
         wScrn=  0.000000 ICntrl=     500 IOpCl=  0 I1Cent=   200000004 NGrid=           0
         NMat0=    1 NMatS0=      1 NMatT0=    0 NMatD0=    1 NMtDS0=    0 NMtDT0=    0
 Petite list used in FoFCou.
 Keep R1 ints in memory in symmetry-blocked form, NReq=89148477.
 Requested convergence on RMS density matrix=1.00D-08 within 128 cycles.
 Requested convergence on MAX density matrix=1.00D-06.
 Requested convergence on             energy=1.00D-06.
 No special actions if energy rises.
 Defaulting to unpruned grid for atomic number  78.
 Defaulting to unpruned grid for atomic number  78.
 Defaulting to unpruned grid for atomic number  78.
 Defaulting to unpruned grid for atomic number  78.
 Defaulting to unpruned grid for atomic number  78.
 Defaulting to unpruned grid for atomic number  78.
 Defaulting to unpruned grid for atomic number  78.
 Defaulting to unpruned grid for atomic number  78.
 Inv3:  Mode=1 IEnd=     5796300.
 Iteration    1 A*A^-1 deviation from unit magnitude is 6.66D-15 for    316.
 Iteration    1 A*A^-1 deviation from orthogonality  is 3.44D-15 for   1186    580.
 Iteration    1 A^-1*A deviation from unit magnitude is 7.77D-15 for    306.
 Iteration    1 A^-1*A deviation from orthogonality  is 1.60D-15 for    650    250.
 Error on total polarization charges =  0.01742
 SCF Done:  E(RB3LYP) =  -7107.67067664     A.U. after    9 cycles
            NFock=  9  Conv=0.60D-08     -V/T= 2.0131
  16 Symmetry operations used in ECPInt.
 ECPInt:  NShTT=    2080 NPrTT=   11209 LenC2=    1879 LenP2D=    7079.
 LDataN:  DoStor=T MaxTD1= 7 Len=  274
 D1PCM: PCM CHGder 1st derivatives, ID1Alg=3 FixD1E=F DoIter=F DoCFld=F I1PDM=0.
 Calling FoFJK, ICntrl=      2127 FMM=F ISym2X=1 I1Cent= 0 IOpClX= 0 NMat=1 NMatS=1 NMatT=0.
 Defaulting to unpruned grid for atomic number  78.
 Defaulting to unpruned grid for atomic number  78.
 Defaulting to unpruned grid for atomic number  78.
 Defaulting to unpruned grid for atomic number  78.
 Defaulting to unpruned grid for atomic number  78.
 Defaulting to unpruned grid for atomic number  78.
 Defaulting to unpruned grid for atomic number  78.
 Defaulting to unpruned grid for atomic number  78.
 ***** Axes restored to original set *****
 -------------------------------------------------------------------
 Center     Atomic                   Forces (Hartrees/Bohr)
 Number     Number              X              Y              Z
 -------------------------------------------------------------------
      1       78           0.000000000    0.000000000    0.000000000
      2       17           0.000000000   -0.000713440    0.000000000
      3       17           0.000713440    0.000000000    0.000000000
      4       35           0.000000000    0.000000000   -0.001514189
      5       35           0.000000000    0.000000000    0.001514189
      6       17          -0.000713440    0.000000000    0.000000000
      7       17           0.000000000    0.000713440    0.000000000
 -------------------------------------------------------------------
 Cartesian Forces:  Max     0.001514189 RMS     0.000561525

 GradGradGradGradGradGradGradGradGradGradGradGradGradGradGradGradGradGrad
 Berny optimization.
 Using GEDIIS/GDIIS optimizer.
 FormGI is forming the generalized inverse of G from B-inverse, IUseBI=4.
 Internal  Forces:  Max     0.001514189 RMS     0.000454887
 Search for a local minimum.
 Step number   3 out of a maximum of   42
 All quantities printed in internal units (Hartrees-Bohrs-Radians)
 Mixed Optimization -- En-DIIS/RFO-DIIS
 Update second derivatives using D2CorX and points    2    3
 DE= -6.57D-03 DEPred=-4.01D-03 R= 1.64D+00
 TightC=F SS=  1.41D+00  RLast= 3.05D-01 DXNew= 8.4853D-01 9.1412D-01
 Trust test= 1.64D+00 RLast= 3.05D-01 DXMaxT set to 8.49D-01
 ITU=  1  1  0
 Use linear search instead of GDIIS.
     Eigenvalues ---    0.07780   0.08487   0.08487   0.09380   0.10138
     Eigenvalues ---    0.12615   0.12615   0.12665   0.19389   0.19509
     Eigenvalues ---    0.20546   0.20727   0.22001   0.22001   0.22001
 RFO step:  Lambda=-6.03875691D-06 EMin= 7.78004210D-02
 Quartic linear search produced a step of  0.06711.
 Iteration  1 RMS(Cart)=  0.00383207 RMS(Int)=  0.00000000
 Iteration  2 RMS(Cart)=  0.00000000 RMS(Int)=  0.00000000
 ClnCor:  largest displacement from symmetrization is 3.55D-12 for atom     5.
 Variable       Old X    -DE/DX   Delta X   Delta X   Delta X     New X
                                 (Linear)    (Quad)   (Total)
    R1        4.55597   0.00071   0.00816  -0.00142   0.00674   4.56271
    R2        4.55597   0.00071   0.00816  -0.00142   0.00674   4.56271
    R3        4.83741   0.00151   0.00870   0.00330   0.01200   4.84941
    R4        4.83741   0.00151   0.00870   0.00330   0.01200   4.84941
    R5        4.55597   0.00071   0.00816  -0.00142   0.00674   4.56271
    R6        4.55597   0.00071   0.00816  -0.00142   0.00674   4.56271
    A1        1.57080   0.00000   0.00000   0.00000   0.00000   1.57080
    A2        1.57080   0.00000   0.00000   0.00000   0.00000   1.57080
    A3        1.57080   0.00000   0.00000   0.00000   0.00000   1.57080
    A4        1.57080   0.00000   0.00000   0.00000   0.00000   1.57080
    A5        1.57080   0.00000   0.00000   0.00000   0.00000   1.57080
    A6        1.57080   0.00000   0.00000   0.00000   0.00000   1.57080
    A7        1.57080   0.00000   0.00000   0.00000   0.00000   1.57080
    A8        1.57080   0.00000   0.00000   0.00000   0.00000   1.57080
    A9        1.57080   0.00000   0.00000   0.00000   0.00000   1.57080
   A10        1.57080   0.00000   0.00000   0.00000   0.00000   1.57080
   A11        1.57080   0.00000   0.00000   0.00000   0.00000   1.57080
   A12        1.57080   0.00000   0.00000   0.00000   0.00000   1.57080
   A13        3.14159   0.00000   0.00000   0.00000   0.00000   3.14159
   A14        3.14159   0.00000   0.00000   0.00000   0.00000   3.14159
   A15        3.14159   0.00000   0.00000   0.00000   0.00000   3.14159
   A16        3.14159   0.00000   0.00000   0.00000   0.00000   3.14159
   A17        3.14159   0.00000   0.00000   0.00000   0.00000   3.14159
   A18        3.14159   0.00000   0.00000   0.00000   0.00000   3.14159
    D1       -1.57080   0.00000   0.00000   0.00000   0.00000  -1.57080
    D2        1.57080   0.00000   0.00000   0.00000   0.00000   1.57080
    D3       -1.57080   0.00000   0.00000   0.00000   0.00000  -1.57080
    D4        1.57080   0.00000   0.00000   0.00000   0.00000   1.57080
    D5        1.57080   0.00000   0.00000   0.00000   0.00000   1.57080
    D6       -1.57080   0.00000   0.00000   0.00000   0.00000  -1.57080
    D7        1.57080   0.00000   0.00000   0.00000   0.00000   1.57080
    D8       -1.57080   0.00000   0.00000   0.00000   0.00000  -1.57080
         Item               Value     Threshold  Converged?
 Maximum Force            0.001514     0.000450     NO 
 RMS     Force            0.000455     0.000300     NO 
 Maximum Displacement     0.012005     0.001800     NO 
 RMS     Displacement     0.003832     0.001200     NO 
 Predicted change in Energy=-2.566519D-05
 GradGradGradGradGradGradGradGradGradGradGradGradGradGradGradGradGradGrad

                          Input orientation:                          
 ---------------------------------------------------------------------
 Center     Atomic      Atomic             Coordinates (Angstroms)
 Number     Number       Type             X           Y           Z
 ---------------------------------------------------------------------
      1         78           0       -0.319549    0.338346    0.000000
      2         17           0       -0.319549   -2.076136    0.000000
      3         17           0        2.094933    0.338346    0.000000
      4         35           0       -0.319549    0.338346   -2.566197
      5         35           0       -0.319549    0.338346    2.566197
      6         17           0       -2.734031    0.338346    0.000000
      7         17           0       -0.319549    2.752828    0.000000
 ---------------------------------------------------------------------
                    Distance matrix (angstroms):
                    1          2          3          4          5
     1  Pt   0.000000
     2  Cl   2.414482   0.000000
     3  Cl   2.414482   3.414593   0.000000
     4  Br   2.566197   3.523505   3.523505   0.000000
     5  Br   2.566197   3.523505   3.523505   5.132394   0.000000
     6  Cl   2.414482   3.414593   4.828963   3.523505   3.523505
     7  Cl   2.414482   4.828963   3.414593   3.523505   3.523505
                    6          7
     6  Cl   0.000000
     7  Cl   3.414593   0.000000
 Stoichiometry    Br2Cl4Pt(2-)
 Framework group  D4H[O(Pt),C4(Br.Br),2C2'(Cl.Cl)]
 Deg. of freedom     2
 Full point group                 D4H     NOp  16
 Largest Abelian subgroup         D2H     NOp   8
 Largest concise Abelian subgroup D2H     NOp   8
                         Standard orientation:                         
 ---------------------------------------------------------------------
 Center     Atomic      Atomic             Coordinates (Angstroms)
 Number     Number       Type             X           Y           Z
 ---------------------------------------------------------------------
      1         78           0        0.000000    0.000000    0.000000
      2         17           0        0.000000    2.414482    0.000000
      3         17           0        2.414482    0.000000    0.000000
      4         35           0        0.000000    0.000000    2.566197
      5         35           0        0.000000    0.000000   -2.566197
      6         17           0       -2.414482    0.000000    0.000000
      7         17           0        0.000000   -2.414482    0.000000
 ---------------------------------------------------------------------
 Rotational constants (GHZ):      0.6197664      0.3492285      0.3492285
 Basis read from rwf:  (5D, 7F)
 Pseudo-potential data read from rwf file.
 There are    47 symmetry adapted cartesian basis functions of AG  symmetry.
 There are    13 symmetry adapted cartesian basis functions of B1G symmetry.
 There are    14 symmetry adapted cartesian basis functions of B2G symmetry.
 There are    14 symmetry adapted cartesian basis functions of B3G symmetry.
 There are     5 symmetry adapted cartesian basis functions of AU  symmetry.
 There are    29 symmetry adapted cartesian basis functions of B1U symmetry.
 There are    24 symmetry adapted cartesian basis functions of B2U symmetry.
 There are    24 symmetry adapted cartesian basis functions of B3U symmetry.
 There are    40 symmetry adapted basis functions of AG  symmetry.
 There are    13 symmetry adapted basis functions of B1G symmetry.
 There are    14 symmetry adapted basis functions of B2G symmetry.
 There are    14 symmetry adapted basis functions of B3G symmetry.
 There are     5 symmetry adapted basis functions of AU  symmetry.
 There are    26 symmetry adapted basis functions of B1U symmetry.
 There are    23 symmetry adapted basis functions of B2U symmetry.
 There are    23 symmetry adapted basis functions of B3U symmetry.
   158 basis functions,   351 primitive gaussians,   170 cartesian basis functions
    79 alpha electrons       79 beta electrons
       nuclear repulsion energy      1611.7620301924 Hartrees.
 NAtoms=    7 NActive=    7 NUniq=    3 SFac= 4.00D+00 NAtFMM=   60 NAOKFM=F Big=F
 Integral buffers will be    131072 words long.
 Raffenetti 2 integral format.
 Two-electron integral symmetry is turned on.
 ------------------------------------------------------------------------------
 Polarizable Continuum Model (PCM)
 =================================
 Model                : PCM (using non-symmetric T matrix).
 Atomic radii         : UFF (Universal Force Field).
 Polarization charges : Total charges.
 Charge compensation  : None.
 Solution method      : On-the-fly selection.
 Cavity type          : Scaled VdW (van der Waals Surface) (Alpha=1.100).
 Cavity algorithm     : GePol (No added spheres)
                        Default sphere list used, NSphG=    7.
                        Lebedev-Laikov grids with approx.  5.0 points / Ang**2.
                        Smoothing algorithm: Karplus/York (Gamma=1.0000).
                        Polarization charges: spherical gaussians, with
                                              point-specific exponents (IZeta= 3).
                        Self-potential: point-specific (ISelfS= 7).
                        Self-field    : sphere-specific E.n sum rule (ISelfD= 2).
 1st derivatives      : Analytical E(r).r(x)/FMM algorithm (CHGder, D1EAlg=3).
                        Cavity 1st derivative terms included.
 Solvent              : Water, Eps=  78.355300 Eps(inf)=   1.777849
 ------------------------------------------------------------------------------
 Spheres list:
 ISph  on   Nord     Re0    Alpha      Xe            Ye            Ze
    1  Pt      1    1.3770  1.100      0.000000      0.000000      0.000000
    2  Cl      2    1.9735  1.100      0.000000      2.414482      0.000000
    3  Cl      3    1.9735  1.100      2.414482      0.000000      0.000000
    4  Br      4    2.0945  1.100      0.000000      0.000000      2.566197
    5  Br      5    2.0945  1.100      0.000000      0.000000     -2.566197
    6  Cl      6    1.9735  1.100     -2.414482      0.000000      0.000000
    7  Cl      7    1.9735  1.100      0.000000     -2.414482      0.000000
 ------------------------------------------------------------------------------
 One-electron integrals computed using PRISM.
  16 Symmetry operations used in ECPInt.
 ECPInt:  NShTT=    2080 NPrTT=   11209 LenC2=    1879 LenP2D=    7071.
 LDataN:  DoStor=T MaxTD1= 6 Len=  172
 NBasis=   158 RedAO= T EigKep=  1.43D-02  NBF=    40    13    14    14     5    26    23    23
 NBsUse=   158 1.00D-06 EigRej= -1.00D+00 NBFU=    40    13    14    14     5    26    23    23
 Defaulting to unpruned grid for atomic number  78.
 Initial guess from the checkpoint file:  "/home/scr/diego/Gau-3431.chk"
 B after Tr=     0.000000    0.000000    0.000000
         Rot=    1.000000    0.000000    0.000000    0.000000 Ang=   0.00 deg.
 Initial guess orbital symmetries:
       Occupied  (A2U) (A1G) (A1G) (EU) (EU) (B1G) (A2U) (A1G)
                 (A2U) (A1G) (EU) (EU) (EG) (EG) (EU) (EU) (A1G)
                 (B1G) (A2U) (A1G) (EU) (EU) (B1G) (A1G) (A2U)
                 (A2G) (EG) (EG) (EU) (EU) (B2U) (B2G) (A2U) (A1G)
                 (EU) (EU) (EG) (EG) (A1G) (A2U) (A1G) (EG) (EG)
                 (EU) (EU) (B2G) (B1U) (B1G) (B2U) (EU) (EU) (A2U)
                 (A1G) (B1G) (EU) (EU) (A1G) (A2U) (B1G) (A1G)
                 (A1G) (B2G) (EG) (EG) (EU) (EU) (A2U) (B2U) (EU)
                 (EU) (A2U) (EU) (EU) (EG) (EG) (B2G) (A2G) (EG)
                 (EG)
       Virtual   (A1G) (B1G) (A1G) (A1G) (A1G) (B1G) (A1G) (A1G)
                 (B1G) (A1G) (B1G) (A1G) (A1G) (A1G) (B1G) (A1G)
                 (B1G) (B1G) (B1G) (A1G) (B2G) (B2G) (B2G) (A2G)
                 (B2G) (A2G) (B2G) (EG) (EG) (EG) (EG) (EG) (EG)
                 (EG) (EG) (EG) (EG) (EG) (EG) (EG) (EG) (B1U)
                 (B1U) (A1U) (B1U) (A2U) (A2U) (A2U) (A2U) (B2U)
                 (A2U) (B2U) (A2U) (A2U) (B2U) (A2U) (B2U) (EU)
                 (EU) (EU) (EU) (EU) (EU) (EU) (EU) (EU) (EU) (EU)
                 (EU) (EU) (EU) (EU) (EU) (EU) (EU) (EU) (EU) (EU)
                 (EU)
 Keep R1 ints in memory in symmetry-blocked form, NReq=89148477.
 Requested convergence on RMS density matrix=1.00D-08 within 128 cycles.
 Requested convergence on MAX density matrix=1.00D-06.
 Requested convergence on             energy=1.00D-06.
 No special actions if energy rises.
 Defaulting to unpruned grid for atomic number  78.
 Defaulting to unpruned grid for atomic number  78.
 Defaulting to unpruned grid for atomic number  78.
 Defaulting to unpruned grid for atomic number  78.
 Defaulting to unpruned grid for atomic number  78.
 Defaulting to unpruned grid for atomic number  78.
 Defaulting to unpruned grid for atomic number  78.
 Defaulting to unpruned grid for atomic number  78.
 Inv3:  Mode=1 IEnd=     5796300.
 Iteration    1 A*A^-1 deviation from unit magnitude is 6.22D-15 for    495.
 Iteration    1 A*A^-1 deviation from orthogonality  is 3.18D-15 for   1104    225.
 Iteration    1 A^-1*A deviation from unit magnitude is 7.33D-15 for    495.
 Iteration    1 A^-1*A deviation from orthogonality  is 1.54D-15 for   1035    859.
 Error on total polarization charges =  0.01737
 SCF Done:  E(RB3LYP) =  -7107.67070596     A.U. after    7 cycles
            NFock=  7  Conv=0.54D-08     -V/T= 2.0131
  16 Symmetry operations used in ECPInt.
 ECPInt:  NShTT=    2080 NPrTT=   11209 LenC2=    1879 LenP2D=    7071.
 LDataN:  DoStor=T MaxTD1= 7 Len=  274
 D1PCM: PCM CHGder 1st derivatives, ID1Alg=3 FixD1E=F DoIter=F DoCFld=F I1PDM=0.
 Calling FoFJK, ICntrl=      2127 FMM=F ISym2X=1 I1Cent= 0 IOpClX= 0 NMat=1 NMatS=1 NMatT=0.
 Defaulting to unpruned grid for atomic number  78.
 Defaulting to unpruned grid for atomic number  78.
 Defaulting to unpruned grid for atomic number  78.
 Defaulting to unpruned grid for atomic number  78.
 Defaulting to unpruned grid for atomic number  78.
 Defaulting to unpruned grid for atomic number  78.
 Defaulting to unpruned grid for atomic number  78.
 Defaulting to unpruned grid for atomic number  78.
 ***** Axes restored to original set *****
 -------------------------------------------------------------------
 Center     Atomic                   Forces (Hartrees/Bohr)
 Number     Number              X              Y              Z
 -------------------------------------------------------------------
      1       78           0.000000000    0.000000000    0.000000000
      2       17           0.000000000    0.000176882    0.000000000
      3       17          -0.000176882    0.000000000    0.000000000
      4       35           0.000000000    0.000000000   -0.000335479
      5       35           0.000000000    0.000000000    0.000335479
      6       17           0.000176882    0.000000000    0.000000000
      7       17           0.000000000   -0.000176882    0.000000000
 -------------------------------------------------------------------
 Cartesian Forces:  Max     0.000335479 RMS     0.000129144

 GradGradGradGradGradGradGradGradGradGradGradGradGradGradGradGradGradGrad
 Berny optimization.
 Using GEDIIS/GDIIS optimizer.
 FormGI is forming the generalized inverse of G from B-inverse, IUseBI=4.
 Internal  Forces:  Max     0.000335479 RMS     0.000104619
 Search for a local minimum.
 Step number   4 out of a maximum of   42
 All quantities printed in internal units (Hartrees-Bohrs-Radians)
 Mixed Optimization -- En-DIIS/RFO-DIIS
 Swapping is turned off.
 Update second derivatives using D2CorX and points    2    3    4
 DE= -2.93D-05 DEPred=-2.57D-05 R= 1.14D+00
 TightC=F SS=  1.41D+00  RLast= 2.17D-02 DXNew= 1.4270D+00 6.5032D-02
 Trust test= 1.14D+00 RLast= 2.17D-02 DXMaxT set to 8.49D-01
 ITU=  1  1  1  0
     Eigenvalues ---    0.07780   0.08487   0.08487   0.09380   0.10138
[...]
  Atom  AN      X      Y      Z        X      Y      Z        X      Y      Z
     1  78    -0.20   0.00   0.00     0.00   0.00  -0.08     0.00   0.00   0.00
     2  17     0.64   0.00   0.00     0.00   0.00   0.45     0.50   0.00   0.00
     3  17    -0.26   0.00   0.00     0.00   0.00   0.45     0.00   0.50   0.00
     4  35     0.08   0.00   0.00     0.00   0.00  -0.30     0.00   0.00   0.00
     5  35     0.08   0.00   0.00     0.00   0.00  -0.30     0.00   0.00   0.00
     6  17    -0.26   0.00   0.00     0.00   0.00   0.45     0.00  -0.50   0.00
     7  17     0.64   0.00   0.00     0.00   0.00   0.45    -0.50   0.00   0.00
                     10                     11                     12
                     A1G                    A2U                    B1G
 Frequencies --    171.5036               212.3333               277.5508
 Red. masses --     78.3311               106.5641                34.9689
 Frc consts  --      1.3575                 2.8307                 1.5871
 IR Inten    --      0.0000                60.5093                 0.0000
  Atom  AN      X      Y      Z        X      Y      Z        X      Y      Z
     1  78     0.00   0.00   0.00     0.00   0.00   0.56     0.00   0.00   0.00
     2  17     0.00  -0.06   0.00     0.00   0.00  -0.22     0.00  -0.50   0.00
     3  17    -0.06   0.00   0.00     0.00   0.00  -0.22     0.50   0.00   0.00
     4  35     0.00   0.00   0.70     0.00   0.00  -0.49     0.00   0.00   0.00
     5  35     0.00   0.00  -0.70     0.00   0.00  -0.49     0.00   0.00   0.00
     6  17     0.06   0.00   0.00     0.00   0.00  -0.22    -0.50   0.00   0.00
     7  17     0.00   0.06   0.00     0.00   0.00  -0.22     0.00   0.50   0.00
                     13                     14                     15
                     A1G                    EU                     EU
 Frequencies --    300.4453               301.5796               301.5796
 Red. masses --     35.0854                46.2788                46.2788
 Frc consts  --      1.8660                 2.4799                 2.4799
 IR Inten    --      0.0000                98.6216                98.6216
  Atom  AN      X      Y      Z        X      Y      Z        X      Y      Z
     1  78     0.00   0.00   0.00     0.27   0.00   0.00     0.00   0.27   0.00
     2  17     0.00   0.50   0.00    -0.05  -0.01   0.00     0.00  -0.68   0.00
     3  17     0.50   0.00   0.00    -0.68   0.00   0.00     0.01  -0.05   0.00
     4  35     0.00   0.00   0.04    -0.01   0.00   0.00     0.00  -0.01   0.00
     5  35     0.00   0.00  -0.04    -0.01   0.00   0.00     0.00  -0.01   0.00
     6  17    -0.50   0.00   0.00    -0.68   0.00   0.00     0.01  -0.05   0.00
     7  17     0.00  -0.50   0.00    -0.05  -0.01   0.00     0.00  -0.68   0.00

 -------------------
 - Thermochemistry -
 -------------------
 Temperature   298.150 Kelvin.  Pressure   1.00000 Atm.
 Atom     1 has atomic number 78 and mass 194.96480
 Atom     2 has atomic number 17 and mass  34.96885
 Atom     3 has atomic number 17 and mass  34.96885
 Atom     4 has atomic number 35 and mass  78.91834
 Atom     5 has atomic number 35 and mass  78.91834
 Atom     6 has atomic number 17 and mass  34.96885
 Atom     7 has atomic number 17 and mass  34.96885
 Molecular mass:   492.67688 amu.
 Principal axes and moments of inertia in atomic units:
                           1         2         3
     Eigenvalues --  2911.246635170.879005170.87900
           X            0.00000   0.91298   0.40801
           Y            0.00000  -0.40801   0.91298
           Z            1.00000   0.00000   0.00000
 This molecule is a prolate symmetric top.
 Rotational symmetry number  8.
 Warning -- assumption of classical behavior for rotation
           may cause significant error
 Rotational temperatures (Kelvin)      0.02975     0.01675     0.01675
 Rotational constants (GHZ):           0.61992     0.34902     0.34902
 Zero-point vibrational energy      15212.0 (Joules/Mol)
                                    3.63575 (Kcal/Mol)
 Warning -- explicit consideration of  15 degrees of freedom as
           vibrations may cause significant error
 Vibrational temperatures:     95.06   127.99   127.99   132.11   132.11
          (Kelvin)            196.38   196.38   196.75   202.72   246.76
                              305.50   399.33   432.27   433.91   433.91
 
 Zero-point correction=                           0.005794 (Hartree/Particle)
 Thermal correction to Energy=                    0.017954
 Thermal correction to Enthalpy=                  0.018899
 Thermal correction to Gibbs Free Energy=        -0.035030
 Sum of electronic and zero-point Energies=          -7107.664913
 Sum of electronic and thermal Energies=             -7107.652753
 Sum of electronic and thermal Enthalpies=           -7107.651809
 Sum of electronic and thermal Free Energies=        -7107.705737
 
                     E (Thermal)             CV                S
                      KCal/Mol        Cal/Mol-Kelvin    Cal/Mol-Kelvin
 Total                   11.267             33.848            113.502
 Electronic               0.000              0.000              0.000
 Translational            0.889              2.981             44.472
 Rotational               0.889              2.981             28.588
 Vibrational              9.489             27.886             40.442
 Vibration     1          0.597              1.970              4.267
 Vibration     2          0.602              1.957              3.683
 Vibration     3          0.602              1.957              3.683
 Vibration     4          0.602              1.955              3.621
 Vibration     5          0.602              1.955              3.621
 Vibration     6          0.614              1.917              2.852
 Vibration     7          0.614              1.917              2.852
 Vibration     8          0.614              1.917              2.849
 Vibration     9          0.615              1.912              2.792
 Vibration    10          0.626              1.878              2.419
 Vibration    11          0.643              1.822              2.024
 Vibration    12          0.679              1.715              1.549
 Vibration    13          0.693              1.673              1.414
 Vibration    14          0.694              1.671              1.408
 Vibration    15          0.694              1.671              1.408
                       Q            Log10(Q)             Ln(Q)
 Total Bot       0.129568D+17         16.112497         37.100395
 Total V=0       0.599129D+19         18.777520         43.236838
 Vib (Bot)       0.763551D+02          1.882838          4.335395
 Vib (Bot)    1  0.312319D+01          0.494599          1.138856
 Vib (Bot)    2  0.231175D+01          0.363940          0.838004
 Vib (Bot)    3  0.231175D+01          0.363940          0.838004
 Vib (Bot)    4  0.223849D+01          0.349954          0.805800
 Vib (Bot)    5  0.223849D+01          0.349954          0.805800
 Vib (Bot)    6  0.149110D+01          0.173506          0.399513
 Vib (Bot)    7  0.149110D+01          0.173506          0.399513
 Vib (Bot)    8  0.148823D+01          0.172670          0.397587
 Vib (Bot)    9  0.144280D+01          0.159205          0.366583
 Vib (Bot)   10  0.117448D+01          0.069844          0.160822
 Vib (Bot)   11  0.934520D+00         -0.029412         -0.067723
 Vib (Bot)   12  0.693600D+00         -0.158891         -0.365859
 Vib (Bot)   13  0.632824D+00         -0.198717         -0.457562
 Vib (Bot)   14  0.630041D+00         -0.200631         -0.461971
 Vib (Bot)   15  0.630041D+00         -0.200631         -0.461971
 Vib (V=0)       0.353070D+05          4.547861         10.471838
 Vib (V=0)    1  0.366296D+01          0.563833          1.298273
 Vib (V=0)    2  0.286520D+01          0.457155          1.052638
 Vib (V=0)    3  0.286520D+01          0.457155          1.052638
 Vib (V=0)    4  0.279365D+01          0.446172          1.027348
 Vib (V=0)    5  0.279365D+01          0.446172          1.027348
 Vib (V=0)    6  0.207270D+01          0.316536          0.728851
 Vib (V=0)    7  0.207270D+01          0.316536          0.728851
 Vib (V=0)    8  0.206998D+01          0.315966          0.727538
 Vib (V=0)    9  0.202698D+01          0.306849          0.706546
 Vib (V=0)   10  0.177648D+01          0.249559          0.574632
 Vib (V=0)   11  0.155987D+01          0.193089          0.444603
 Vib (V=0)   12  0.135503D+01          0.131950          0.303826
 Vib (V=0)   13  0.130652D+01          0.116114          0.267363
 Vib (V=0)   14  0.130433D+01          0.115388          0.265692
 Vib (V=0)   15  0.130433D+01          0.115388          0.265692
 Electronic      0.100000D+01          0.000000          0.000000
 Translational   0.429832D+09          8.633298         19.878904
 Rotational      0.394785D+06          5.596360         12.886096
 ***** Axes restored to original set *****
 -------------------------------------------------------------------
 Center     Atomic                   Forces (Hartrees/Bohr)
 Number     Number              X              Y              Z
 -------------------------------------------------------------------
      1       78           0.000000000    0.000000000    0.000000000
      2       17           0.000000000    0.000124347    0.000000000
      3       17          -0.000124347    0.000000000    0.000000000
      4       35           0.000000000    0.000000000   -0.000142377
      5       35           0.000000000    0.000000000    0.000142377
      6       17           0.000124347    0.000000000    0.000000000
      7       17           0.000000000   -0.000124347    0.000000000
 -------------------------------------------------------------------
 Cartesian Forces:  Max     0.000142377 RMS     0.000069826
 FormGI is forming the generalized inverse of G from B-inverse, IUseBI=4.

 GradGradGradGradGradGradGradGradGradGradGradGradGradGradGradGradGradGrad
 Berny optimization.
 Internal  Forces:  Max     0.000142377 RMS     0.000056566
 Search for a local minimum.
 Step number   1 out of a maximum of    2
 All quantities printed in internal units (Hartrees-Bohrs-Radians)
 Second derivative matrix not updated -- analytic derivatives used.
 ITU=  0
     Eigenvalues ---    0.02141   0.05065   0.05548   0.05903   0.06519
     Eigenvalues ---    0.06729   0.07642   0.08628   0.08882   0.09080
     Eigenvalues ---    0.09303   0.09813   0.10194   0.12030   0.12163
 Angle between quadratic step and forces=   8.60 degrees.
 Linear search not attempted -- first point.
 Iteration  1 RMS(Cart)=  0.00059937 RMS(Int)=  0.00000000
 Iteration  2 RMS(Cart)=  0.00000000 RMS(Int)=  0.00000000
 ClnCor:  largest displacement from symmetrization is 3.64D-11 for atom     5.
 Variable       Old X    -DE/DX   Delta X   Delta X   Delta X     New X
                                 (Linear)    (Quad)   (Total)
    R1        4.56214  -0.00012   0.00000  -0.00114  -0.00114   4.56100
    R2        4.56214  -0.00012   0.00000  -0.00114  -0.00114   4.56100
    R3        4.85166   0.00014   0.00000   0.00177   0.00177   4.85343
    R4        4.85166   0.00014   0.00000   0.00177   0.00177   4.85343
    R5        4.56214  -0.00012   0.00000  -0.00114  -0.00114   4.56100
    R6        4.56214  -0.00012   0.00000  -0.00114  -0.00114   4.56100
    A1        1.57080   0.00000   0.00000   0.00000   0.00000   1.57080
    A2        1.57080   0.00000   0.00000   0.00000   0.00000   1.57080
    A3        1.57080   0.00000   0.00000   0.00000   0.00000   1.57080
    A4        1.57080   0.00000   0.00000   0.00000   0.00000   1.57080
    A5        1.57080   0.00000   0.00000   0.00000   0.00000   1.57080
    A6        1.57080   0.00000   0.00000   0.00000   0.00000   1.57080
    A7        1.57080   0.00000   0.00000   0.00000   0.00000   1.57080
    A8        1.57080   0.00000   0.00000   0.00000   0.00000   1.57080
    A9        1.57080   0.00000   0.00000   0.00000   0.00000   1.57080
   A10        1.57080   0.00000   0.00000   0.00000   0.00000   1.57080
   A11        1.57080   0.00000   0.00000   0.00000   0.00000   1.57080
   A12        1.57080   0.00000   0.00000   0.00000   0.00000   1.57080
   A13        3.14159   0.00000   0.00000   0.00000   0.00000   3.14159
   A14        3.14159   0.00000   0.00000   0.00000   0.00000   3.14159
   A15        3.14159   0.00000   0.00000   0.00000   0.00000   3.14159
   A16        3.14159   0.00000   0.00000   0.00000   0.00000   3.14159
   A17        3.14159   0.00000   0.00000   0.00000   0.00000   3.14159
   A18        3.14159   0.00000   0.00000   0.00000   0.00000   3.14159
    D1       -1.57080   0.00000   0.00000   0.00000   0.00000  -1.57080
    D2        1.57080   0.00000   0.00000   0.00000   0.00000   1.57080
    D3       -1.57080   0.00000   0.00000   0.00000   0.00000  -1.57080
    D4        1.57080   0.00000   0.00000   0.00000   0.00000   1.57080
    D5        1.57080   0.00000   0.00000   0.00000   0.00000   1.57080
    D6       -1.57080   0.00000   0.00000   0.00000   0.00000  -1.57080
    D7        1.57080   0.00000   0.00000   0.00000   0.00000   1.57080
    D8       -1.57080   0.00000   0.00000   0.00000   0.00000  -1.57080
         Item               Value     Threshold  Converged?
 Maximum Force            0.000142     0.000450     YES
 RMS     Force            0.000057     0.000300     YES
 Maximum Displacement     0.001770     0.001800     YES
 RMS     Displacement     0.000599     0.001200     YES
 Predicted change in Energy=-5.363574D-07
 Optimization completed.
    -- Stationary point found.
                           ----------------------------
                           !   Optimized Parameters   !
                           ! (Angstroms and Degrees)  !
 --------------------------                            --------------------------
 ! Name  Definition              Value          Derivative Info.                !
 --------------------------------------------------------------------------------
 ! R1    R(1,2)                  2.4142         -DE/DX =   -0.0001              !
 ! R2    R(1,3)                  2.4142         -DE/DX =   -0.0001              !
 ! R3    R(1,4)                  2.5674         -DE/DX =    0.0001              !
 ! R4    R(1,5)                  2.5674         -DE/DX =    0.0001              !
 ! R5    R(1,6)                  2.4142         -DE/DX =   -0.0001              !
 ! R6    R(1,7)                  2.4142         -DE/DX =   -0.0001              !
 ! A1    A(2,1,3)               90.0            -DE/DX =    0.0                 !
 ! A2    A(2,1,4)               90.0            -DE/DX =    0.0                 !
 ! A3    A(2,1,5)               90.0            -DE/DX =    0.0                 !
 ! A4    A(2,1,6)               90.0            -DE/DX =    0.0                 !
 ! A5    A(3,1,4)               90.0            -DE/DX =    0.0                 !
 ! A6    A(3,1,5)               90.0            -DE/DX =    0.0                 !
 ! A7    A(3,1,7)               90.0            -DE/DX =    0.0                 !
 ! A8    A(4,1,6)               90.0            -DE/DX =    0.0                 !
 ! A9    A(4,1,7)               90.0            -DE/DX =    0.0                 !
 ! A10   A(5,1,6)               90.0            -DE/DX =    0.0                 !
 ! A11   A(5,1,7)               90.0            -DE/DX =    0.0                 !
 ! A12   A(6,1,7)               90.0            -DE/DX =    0.0                 !
 ! A13   L(2,1,7,3,-1)         180.0            -DE/DX =    0.0                 !
 ! A14   L(3,1,6,2,-1)         180.0            -DE/DX =    0.0                 !
 ! A15   L(4,1,5,2,-1)         180.0            -DE/DX =    0.0                 !
 ! A16   L(2,1,7,3,-2)         180.0            -DE/DX =    0.0                 !
 ! A17   L(3,1,6,2,-2)         180.0            -DE/DX =    0.0                 !
 ! A18   L(4,1,5,2,-2)         180.0            -DE/DX =    0.0                 !
 ! D1    D(2,1,4,3)            -90.0            -DE/DX =    0.0                 !
 ! D2    D(2,1,5,3)             90.0            -DE/DX =    0.0                 !
 ! D3    D(2,1,6,4)            -90.0            -DE/DX =    0.0                 !
 ! D4    D(2,1,6,5)             90.0            -DE/DX =    0.0                 !
 ! D5    D(3,1,7,4)             90.0            -DE/DX =    0.0                 !
 ! D6    D(3,1,7,5)            -90.0            -DE/DX =    0.0                 !
 ! D7    D(4,1,7,6)             90.0            -DE/DX =    0.0                 !
 ! D8    D(5,1,7,6)            -90.0            -DE/DX =    0.0                 !
 --------------------------------------------------------------------------------
 GradGradGradGradGradGradGradGradGradGradGradGradGradGradGradGradGradGrad

 1\1\GINC-NEQC17\Freq\RB3LYP\Gen\Br2Cl4Pt1(2-)\DIEGO\18-Aug-2021\0\\#N 
 Geom=AllCheck Guess=TCheck SCRF=Check GenChk RB3LYP/ChkBas Freq\\Estru
 tura 20\\-2,1\Pt,-0.31954889,0.33834586,0.\Cl,-0.31954889,-2.075835779
 1,0.\Cl,2.0946327491,0.33834586,0.\Br,-0.31954889,0.33834586,-2.567388
 1189\Br,-0.31954889,0.33834586,2.5673881189\Cl,-2.7337305291,0.3383458
 6,0.\Cl,-0.31954889,2.7525274991,0.\\Version=EM64L-G09RevD.01\State=1-
 A1G\HF=-7107.6707074\RMSD=2.056e-09\RMSF=6.983e-05\ZeroPoint=0.0057939
 \Thermal=0.0179545\Dipole=0.,0.,0.\DipoleDeriv=1.2834848,0.,0.,0.,1.28
 34848,0.,0.,0.,1.6436444,-0.1593424,0.,0.,0.,-1.3276626,0.,0.,0.,-0.13
 68895,-1.3276626,0.,0.,0.,-0.1593424,0.,0.,0.,-0.1368895,-0.1547374,0.
 ,0.,0.,-0.1547374,0.,0.,0.,-1.5480433,-0.1547374,0.,0.,0.,-0.1547374,0
 .,0.,0.,-1.5480433,-1.3276626,0.,0.,0.,-0.1593424,0.,0.,0.,-0.1368895,
 -0.1593424,0.,0.,0.,-1.3276626,0.,0.,0.,-0.1368895\Polar=175.2309022,0
 .,175.2309022,0.,0.,240.5438301\PG=D04H [O(Pt1),C4(Br1.Br1),2C2'(Cl1.C
 l1)]\NImag=0\\0.23246777,0.,0.23246777,0.,0.,0.19497920,-0.01816205,0.
 ,0.,0.01483235,0.,-0.08435553,0.,0.,0.09894592,0.,0.,-0.01775607,0.,0.
 ,0.00881136,-0.08435553,0.,0.,-0.00013653,-0.00425785,0.,0.09894592,0.
 ,-0.01816205,0.,-0.00772901,-0.00013653,0.,0.,0.01483235,0.,0.,-0.0177
 5607,0.,0.,0.00355418,0.,0.,0.00881136,-0.01371630,0.,0.,-0.00020820,0
 .,0.,-0.00140223,0.,-0.00531792,0.01402087,0.,-0.01371630,0.,0.,-0.001
 40223,0.00531792,0.,-0.00020820,0.,0.,0.01402087,0.,0.,-0.06197746,0.,
 0.00329348,-0.00111870,-0.00329348,0.,-0.00111870,0.,0.,0.07769052,-0.
 01371630,0.,0.,-0.00020820,0.,0.,-0.00140223,0.,0.00531792,0.00291629,
 0.,0.,0.01402087,0.,-0.01371630,0.,0.,-0.00140223,-0.00531792,0.,-0.00
 020820,0.,0.,0.00291629,0.,0.,0.01402087,0.,0.,-0.06197746,0.,-0.00329
 348,-0.00111870,0.00329348,0.,-0.00111870,0.,0.,-0.01123827,0.,0.,0.07
 769052,-0.08435553,0.,0.,-0.00013653,0.00425785,0.,-0.01151287,0.,0.,-
 0.00140223,0.,0.00329348,-0.00140223,0.,-0.00329348,0.09894592,0.,-0.0
 1816205,0.,0.00772901,-0.00013653,0.,0.,0.00401917,0.,0.,-0.00020820,0
 .,0.,-0.00020820,0.,0.,0.01483235,0.,0.,-0.01775607,0.,0.,0.00355418,0
 .,0.,0.00407374,0.00531792,0.,-0.00111870,-0.00531792,0.,-0.00111870,0
 .,0.,0.00881136,-0.01816205,0.,0.,0.00401917,0.,0.,-0.00013653,0.00772
 901,0.,-0.00020820,0.,0.,-0.00020820,0.,0.,-0.00013653,-0.00772901,0.,
 0.01483235,0.,-0.08435553,0.,0.,-0.01151287,0.,0.00425785,-0.00013653,
 0.,0.,-0.00140223,-0.00329348,0.,-0.00140223,0.00329348,-0.00425785,-0
 .00013653,0.,0.,0.09894592,0.,0.,-0.01775607,0.,0.,0.00407374,0.,0.,0.
 00355418,0.,-0.00531792,-0.00111870,0.,0.00531792,-0.00111870,0.,0.,0.
 00355418,0.,0.,0.00881136\\0.,0.,0.,0.,-0.00012435,0.,0.00012435,0.,0.
 ,0.,0.,0.00014238,0.,0.,-0.00014238,-0.00012435,0.,0.,0.,0.00012435,0.
 \\\@


 The impersonal hand of government can
 never replace the helping hand of a neighbor.
                        -- Hubert H. Humphrey
 Job cpu time:       0 days  0 hours  4 minutes 14.3 seconds.
 File lengths (MBytes):  RWF=     76 Int=      0 D2E=      0 Chk=      6 Scr=      1
 Normal termination of Gaussian 09 at Wed Aug 18 03:20:37 2021.
