 Entering Gaussian System, Link 0=g09
 Input=estrutura21_D2O.com
 Output=estrutura21_D2O.log
 Initial command:
 /home/scr/programs/g09/l1.exe "/home/scr/diego/Gau-4016.inp" -scrdir="/home/scr/diego/"
 Entering Link 1 = /home/scr/programs/g09/l1.exe PID=      4018.
  
 Copyright (c) 1988,1990,1992,1993,1995,1998,2003,2009,2013,
            Gaussian, Inc.  All Rights Reserved.
  
 This is part of the Gaussian(R) 09 program.  It is based on
 the Gaussian(R) 03 system (copyright 2003, Gaussian, Inc.),
 the Gaussian(R) 98 system (copyright 1998, Gaussian, Inc.),
 the Gaussian(R) 94 system (copyright 1995, Gaussian, Inc.),
 the Gaussian 92(TM) system (copyright 1992, Gaussian, Inc.),
 the Gaussian 90(TM) system (copyright 1990, Gaussian, Inc.),
 the Gaussian 88(TM) system (copyright 1988, Gaussian, Inc.),
 the Gaussian 86(TM) system (copyright 1986, Carnegie Mellon
 University), and the Gaussian 82(TM) system (copyright 1983,
 Carnegie Mellon University). Gaussian is a federally registered
 trademark of Gaussian, Inc.
  
 This software contains proprietary and confidential information,
 including trade secrets, belonging to Gaussian, Inc.
  
 This software is provided under written license and may be
 used, copied, transmitted, or stored only in accord with that
 written license.
  
 The following legend is applicable only to US Government
 contracts under FAR:
  
                    RESTRICTED RIGHTS LEGEND
  
 Use, reproduction and disclosure by the US Government is
 subject to restrictions as set forth in subparagraphs (a)
 and (c) of the Commercial Computer Software - Restricted
 Rights clause in FAR 52.227-19.
  
 Gaussian, Inc.
 340 Quinnipiac St., Bldg. 40, Wallingford CT 06492
  
  
 ---------------------------------------------------------------
 Warning -- This program may not be used in any manner that
 competes with the business of Gaussian, Inc. or will provide
 assistance to any competitor of Gaussian, Inc.  The licensee
 of this program is prohibited from giving any competitor of
 Gaussian, Inc. access to this program.  By using this program,
 the user acknowledges that Gaussian, Inc. is engaged in the
 business of creating and licensing software in the field of
 computational chemistry and represents and warrants to the
 licensee that it is not a competitor of Gaussian, Inc. and that
 it will not use this program in any manner prohibited above.
 ---------------------------------------------------------------
  

 Cite this work as:
 Gaussian 09, Revision D.01,
 M. J. Frisch, G. W. Trucks, H. B. Schlegel, G. E. Scuseria, 
 M. A. Robb, J. R. Cheeseman, G. Scalmani, V. Barone, B. Mennucci, 
 G. A. Petersson, H. Nakatsuji, M. Caricato, X. Li, H. P. Hratchian, 
 A. F. Izmaylov, J. Bloino, G. Zheng, J. L. Sonnenberg, M. Hada, 
 M. Ehara, K. Toyota, R. Fukuda, J. Hasegawa, M. Ishida, T. Nakajima, 
 Y. Honda, O. Kitao, H. Nakai, T. Vreven, J. A. Montgomery, Jr., 
 J. E. Peralta, F. Ogliaro, M. Bearpark, J. J. Heyd, E. Brothers, 
 K. N. Kudin, V. N. Staroverov, T. Keith, R. Kobayashi, J. Normand, 
 K. Raghavachari, A. Rendell, J. C. Burant, S. S. Iyengar, J. Tomasi, 
 M. Cossi, N. Rega, J. M. Millam, M. Klene, J. E. Knox, J. B. Cross, 
 V. Bakken, C. Adamo, J. Jaramillo, R. Gomperts, R. E. Stratmann, 
 O. Yazyev, A. J. Austin, R. Cammi, C. Pomelli, J. W. Ochterski, 
 R. L. Martin, K. Morokuma, V. G. Zakrzewski, G. A. Voth, 
 P. Salvador, J. J. Dannenberg, S. Dapprich, A. D. Daniels, 
 O. Farkas, J. B. Foresman, J. V. Ortiz, J. Cioslowski, 
 and D. J. Fox, Gaussian, Inc., Wallingford CT, 2013.
 
 ******************************************
 Gaussian 09:  EM64L-G09RevD.01 24-Apr-2013
                18-Aug-2021 
 ******************************************
 %mem=15gb
 %nproc=8
 Will use up to    8 processors via shared memory.
 ------------------------------------------------------------
 #b3lyp/gen pseudo=read opt freq=noraman scrf=(solvent=water)
 ------------------------------------------------------------
 1/14=-1,18=20,19=15,26=3,38=1/1,3;
 2/9=110,12=2,17=6,18=5,40=1/2;
 3/5=7,11=2,16=1,17=8,25=1,30=1,70=2201,71=1,72=1,74=-5/1,2,3;
 4//1;
 5/5=2,38=5,53=1/2;
 6/7=2,8=2,9=2,10=2,28=1/1;
 7//1,2,3,16;
 1/14=-1,18=20,19=15,26=3/3(2);
 2/9=110/2;
 99//99;
 2/9=110/2;
 3/5=7,6=1,11=2,16=1,17=8,25=1,30=1,70=2205,71=1,72=1,74=-5,82=7/1,2,3;
 4/5=5,16=3,69=1/1;
 5/5=2,38=5,53=1/2;
 7//1,2,3,16;
 1/14=-1,18=20,19=15,26=3/3(-5);
 2/9=110/2;
 6/7=2,8=2,9=2,10=2,19=2,28=1/1;
 99/9=1/99;
 ------------
 Estrutura 21
 ------------
 Symbolic Z-matrix:
 Charge = -2 Multiplicity = 1
 Pt                   -0.31955   0.33835   0. 
 Br                   -0.31955   0.33835  -2.43 
 Cl                   -2.59955   0.33835   0. 
 Cl                   -0.31955   2.61835   0. 
 Cl                   -0.31955   0.33835   2.28 
 Br                   -0.31955  -2.09165   0. 
 Br                    2.11045   0.33835   0. 
 

 GradGradGradGradGradGradGradGradGradGradGradGradGradGradGradGradGradGrad
 Berny optimization.
 Initialization pass.
                           ----------------------------
                           !    Initial Parameters    !
                           ! (Angstroms and Degrees)  !
 --------------------------                            --------------------------
 ! Name  Definition              Value          Derivative Info.                !
 --------------------------------------------------------------------------------
 ! R1    R(1,2)                  2.43           estimate D2E/DX2                !
 ! R2    R(1,3)                  2.28           estimate D2E/DX2                !
 ! R3    R(1,4)                  2.28           estimate D2E/DX2                !
 ! R4    R(1,5)                  2.28           estimate D2E/DX2                !
 ! R5    R(1,6)                  2.43           estimate D2E/DX2                !
 ! R6    R(1,7)                  2.43           estimate D2E/DX2                !
 ! A1    A(2,1,3)               90.0            estimate D2E/DX2                !
 ! A2    A(2,1,4)               90.0            estimate D2E/DX2                !
 ! A3    A(2,1,6)               90.0            estimate D2E/DX2                !
 ! A4    A(2,1,7)               90.0            estimate D2E/DX2                !
 ! A5    A(3,1,4)               90.0            estimate D2E/DX2                !
 ! A6    A(3,1,5)               90.0            estimate D2E/DX2                !
 ! A7    A(3,1,6)               90.0            estimate D2E/DX2                !
 ! A8    A(4,1,5)               90.0            estimate D2E/DX2                !
 ! A9    A(4,1,7)               90.0            estimate D2E/DX2                !
 ! A10   A(5,1,6)               90.0            estimate D2E/DX2                !
 ! A11   A(5,1,7)               90.0            estimate D2E/DX2                !
 ! A12   A(6,1,7)               90.0            estimate D2E/DX2                !
 ! A13   L(2,1,5,3,-1)         180.0            estimate D2E/DX2                !
 ! A14   L(3,1,7,2,-1)         180.0            estimate D2E/DX2                !
 ! A15   L(4,1,6,2,-1)         180.0            estimate D2E/DX2                !
 ! A16   L(2,1,5,3,-2)         180.0            estimate D2E/DX2                !
 ! A17   L(3,1,7,2,-2)         180.0            estimate D2E/DX2                !
 ! A18   L(4,1,6,2,-2)         180.0            estimate D2E/DX2                !
 ! D1    D(2,1,4,3)             90.0            estimate D2E/DX2                !
 ! D2    D(2,1,6,3)            -90.0            estimate D2E/DX2                !
 ! D3    D(2,1,7,4)             90.0            estimate D2E/DX2                !
 ! D4    D(2,1,7,6)            -90.0            estimate D2E/DX2                !
 ! D5    D(3,1,5,4)            -90.0            estimate D2E/DX2                !
 ! D6    D(3,1,6,5)            -90.0            estimate D2E/DX2                !
 ! D7    D(4,1,7,5)             90.0            estimate D2E/DX2                !
 ! D8    D(5,1,7,6)             90.0            estimate D2E/DX2                !
 --------------------------------------------------------------------------------
 Trust Radius=3.00D-01 FncErr=1.00D-07 GrdErr=1.00D-06
 Number of steps in this run=     42 maximum allowed number of steps=    100.
 GradGradGradGradGradGradGradGradGradGradGradGradGradGradGradGradGradGrad

                          Input orientation:                          
 ---------------------------------------------------------------------
 Center     Atomic      Atomic             Coordinates (Angstroms)
 Number     Number       Type             X           Y           Z
 ---------------------------------------------------------------------
      1         78           0       -0.319549    0.338346    0.000000
      2         35           0       -0.319549    0.338346   -2.430000
      3         17           0       -2.599549    0.338346    0.000000
      4         17           0       -0.319549    2.618346    0.000000
      5         17           0       -0.319549    0.338346    2.280000
      6         35           0       -0.319549   -2.091654    0.000000
      7         35           0        2.110451    0.338346    0.000000
 ---------------------------------------------------------------------
                    Distance matrix (angstroms):
                    1          2          3          4          5
     1  Pt   0.000000
     2  Br   2.430000   0.000000
     3  Cl   2.280000   3.332161   0.000000
     4  Cl   2.280000   3.332161   3.224407   0.000000
     5  Cl   2.280000   4.710000   3.224407   3.224407   0.000000
     6  Br   2.430000   3.436539   3.332161   4.710000   3.332161
     7  Br   2.430000   3.436539   4.710000   3.332161   3.332161
                    6          7
     6  Br   0.000000
     7  Br   3.436539   0.000000
 Stoichiometry    Br3Cl3Pt(2-)
 Framework group  C3V[C3(Pt),3SGV(BrCl)]
 Deg. of freedom     4
 Full point group                 C3V     NOp   6
 Largest Abelian subgroup         CS      NOp   2
 Largest concise Abelian subgroup CS      NOp   2
                         Standard orientation:                         
 ---------------------------------------------------------------------
 Center     Atomic      Atomic             Coordinates (Angstroms)
 Number     Number       Type             X           Y           Z
 ---------------------------------------------------------------------
      1         78           0        0.000000    0.000000    0.342635
      2         35           0        0.000000    1.984087   -1.060326
      3         17           0       -1.612203    0.930806    1.658994
      4         17           0        1.612203    0.930806    1.658994
      5         17           0        0.000000   -1.861612    1.658994
      6         35           0       -1.718269   -0.992043   -1.060326
      7         35           0        1.718269   -0.992043   -1.060326
 ---------------------------------------------------------------------
 Rotational constants (GHZ):      0.4124218      0.4124218      0.3900812
 General basis read from cards:  (5D, 7F)
 ======================================================================================================
                                       Pseudopotential Parameters
 ======================================================================================================
  Center     Atomic      Valence      Angular      Power
  Number     Number     Electrons     Momentum     of R      Exponent        Coefficient   SO-Coeffient
 ======================================================================================================
    1         78           18
                                      G and up 
                                                     1      728.9394056       -0.16192680    0.00000000
                                                     2      320.6567800    -1320.28738520    0.00000000
                                                     2       52.8680174     -298.31781350    0.00000000
                                                     2       12.0280128      -87.58370650    0.00000000
                                                     2        3.5238913       -8.14932740    0.00000000
                                      S - G
                                                     0      409.4437358        2.73342180    0.00000000
                                                     1      274.5419231       59.70243290    0.00000000
                                                     2      127.5658570      891.45895500    0.00000000
                                                     2       32.9036631      368.44676560    0.00000000
                                                     2        5.0593880      238.02630900    0.00000000
                                                     2        4.1506556     -107.05564540    0.00000000
                                      P - G
                                                     0      466.1728892        1.88785680    0.00000000
                                                     1      120.7888259       76.01386290    0.00000000
                                                     2       36.4118791      343.55111160    0.00000000
                                                     2        5.6985408      119.49117860    0.00000000
                                      D - G
                                                     0      249.5650763        2.93436780    0.00000000
                                                     1      126.6678585       59.33065710    0.00000000
                                                     2       63.1430586      452.44451940    0.00000000
                                                     2       17.9059470      210.47694790    0.00000000
                                                     2        4.2239373       58.62541120    0.00000000
                                      F - G
                                                     0      121.8158799        3.95342530    0.00000000
                                                     1       60.8757030       53.85551820    0.00000000
                                                     2       31.4767147      247.43051330    0.00000000
                                                     2        9.8811751      127.81879760    0.00000000
                                                     2        2.7319874       15.37720460    0.00000000
    2         35
                                   No pseudopotential on this center.
    3         17
                                   No pseudopotential on this center.
    4         17
                                   No pseudopotential on this center.
    5         17
                                   No pseudopotential on this center.
    6         35
                                   No pseudopotential on this center.
    7         35
                                   No pseudopotential on this center.
 ======================================================================================================
 There are   110 symmetry adapted cartesian basis functions of A'  symmetry.
 There are    76 symmetry adapted cartesian basis functions of A"  symmetry.
 There are   100 symmetry adapted basis functions of A'  symmetry.
 There are    72 symmetry adapted basis functions of A"  symmetry.
   172 basis functions,   394 primitive gaussians,   186 cartesian basis functions
    88 alpha electrons       88 beta electrons
       nuclear repulsion energy      2100.3273316635 Hartrees.
 NAtoms=    7 NActive=    7 NUniq=    3 SFac= 4.00D+00 NAtFMM=   60 NAOKFM=F Big=F
 Integral buffers will be    131072 words long.
 Raffenetti 2 integral format.
 Two-electron integral symmetry is turned on.
 ------------------------------------------------------------------------------
 Polarizable Continuum Model (PCM)
 =================================
 Model                : PCM (using non-symmetric T matrix).
 Atomic radii         : UFF (Universal Force Field).
 Polarization charges : Total charges.
 Charge compensation  : None.
 Solution method      : On-the-fly selection.
 Cavity type          : Scaled VdW (van der Waals Surface) (Alpha=1.100).
 Cavity algorithm     : GePol (No added spheres)
                        Default sphere list used, NSphG=    7.
                        Lebedev-Laikov grids with approx.  5.0 points / Ang**2.
                        Smoothing algorithm: Karplus/York (Gamma=1.0000).
                        Polarization charges: spherical gaussians, with
                                              point-specific exponents (IZeta= 3).
                        Self-potential: point-specific (ISelfS= 7).
                        Self-field    : sphere-specific E.n sum rule (ISelfD= 2).
 1st derivatives      : Analytical E(r).r(x)/FMM algorithm (CHGder, D1EAlg=3).
                        Cavity 1st derivative terms included.
 Solvent              : Water, Eps=  78.355300 Eps(inf)=   1.777849
 ------------------------------------------------------------------------------
 Spheres list:
 ISph  on   Nord     Re0    Alpha      Xe            Ye            Ze
    1  Pt      1    1.3770  1.100      0.000000      0.000000      0.342635
    2  Br      2    2.0945  1.100      0.000000      1.984087     -1.060326
    3  Cl      3    1.9735  1.100     -1.612203      0.930806      1.658994
    4  Cl      4    1.9735  1.100      1.612203      0.930806      1.658994
    5  Cl      5    1.9735  1.100      0.000000     -1.861612      1.658994
    6  Br      6    2.0945  1.100     -1.718269     -0.992043     -1.060326
    7  Br      7    2.0945  1.100      1.718269     -0.992043     -1.060326
 ------------------------------------------------------------------------------
 One-electron integrals computed using PRISM.
   6 Symmetry operations used in ECPInt.
 ECPInt:  NShTT=    2346 NPrTT=   13080 LenC2=    2122 LenP2D=    8157.
 LDataN:  DoStor=T MaxTD1= 6 Len=  172
 NBasis=   172 RedAO= T EigKep=  5.04D-03  NBF=   100    72
 NBsUse=   172 1.00D-06 EigRej= -1.00D+00 NBFU=   100    72
 Defaulting to unpruned grid for atomic number  78.
 ExpMin= 2.90D-02 ExpMax= 1.13D+05 ExpMxC= 1.70D+04 IAcc=3 IRadAn=         5 AccDes= 0.00D+00
 Harris functional with IExCor=  402 and IRadAn=       5 diagonalized for initial guess.
 HarFok:  IExCor=  402 AccDes= 0.00D+00 IRadAn=         5 IDoV= 1 UseB2=F ITyADJ=14
 ICtDFT=  3500011 ScaDFX=  1.000000  1.000000  1.000000  1.000000
 Defaulting to unpruned grid for atomic number  78.
 Defaulting to unpruned grid for atomic number  78.
 Defaulting to unpruned grid for atomic number  78.
 Defaulting to unpruned grid for atomic number  78.
 Defaulting to unpruned grid for atomic number  78.
 Defaulting to unpruned grid for atomic number  78.
 Defaulting to unpruned grid for atomic number  78.
 Defaulting to unpruned grid for atomic number  78.
 FoFCou: FMM=F IPFlag=           0 FMFlag=      100000 FMFlg1=           0
         NFxFlg=           0 DoJE=T BraDBF=F KetDBF=T FulRan=T
         wScrn=  0.000000 ICntrl=     500 IOpCl=  0 I1Cent=   200000004 NGrid=           0
         NMat0=    1 NMatS0=      1 NMatT0=    0 NMatD0=    1 NMtDS0=    0 NMtDT0=    0
 Petite list used in FoFCou.
 Initial guess orbital symmetries:
       Occupied  (A1) (E) (E) (A1) (E) (E) (A1) (E) (E) (E) (E)
                 (A1) (E) (E) (A2) (A1) (E) (E) (A1) (E) (E) (A1)
                 (E) (E) (E) (E) (A1) (E) (E) (A2) (A1) (E) (E)
                 (E) (E) (A1) (E) (E) (A2) (A1) (E) (E) (A1) (E)
                 (E) (A1) (A1) (E) (E) (E) (E) (A2) (E) (E) (A1)
                 (A2) (E) (E) (E) (E) (A1) (A1) (E) (E) (A1) (E)
                 (E) (A1) (E) (E) (A1) (E) (E) (E) (E) (A2) (A1)
                 (E) (E) (E) (E) (A1) (E) (E) (A2) (A1) (E) (E)
       Virtual   (E) (E) (E) (E) (A1) (A1) (E) (E) (A1) (A1) (E)
                 (E) (E) (E) (A1) (E) (E) (A2) (A1) (E) (E) (E)
                 (E) (A2) (A1) (E) (E) (E) (E) (A1) (E) (E) (E)
                 (E) (A1) (A2) (E) (E) (A1) (E) (E) (E) (E) (A2)
                 (A1) (E) (E) (A2) (A1) (E) (E) (E) (E) (A1) (E)
                 (E) (A2) (A1) (E) (E) (E) (E) (A1) (E) (E) (A1)
                 (E) (E) (A1) (E) (E) (A2) (E) (E) (A2) (E) (E)
                 (A1) (E) (E) (A1) (E) (E) (A1)
 The electronic state of the initial guess is 1-A1.
 Keep R1 ints in memory in symmetry-blocked form, NReq=166245438.
 Requested convergence on RMS density matrix=1.00D-08 within 128 cycles.
 Requested convergence on MAX density matrix=1.00D-06.
 Requested convergence on             energy=1.00D-06.
 No special actions if energy rises.
 Defaulting to unpruned grid for atomic number  78.
 Defaulting to unpruned grid for atomic number  78.
 Defaulting to unpruned grid for atomic number  78.
 Defaulting to unpruned grid for atomic number  78.
 Defaulting to unpruned grid for atomic number  78.
 Defaulting to unpruned grid for atomic number  78.
 Defaulting to unpruned grid for atomic number  78.
 Defaulting to unpruned grid for atomic number  78.
 Inv3:  Mode=1 IEnd=     5573307.
 Iteration    1 A*A^-1 deviation from unit magnitude is 5.77D-15 for     45.
 Iteration    1 A*A^-1 deviation from orthogonality  is 2.74D-15 for   1277    883.
 Iteration    1 A^-1*A deviation from unit magnitude is 6.00D-15 for    281.
 Iteration    1 A^-1*A deviation from orthogonality  is 1.30D-15 for   1075    895.
 Density matrix breaks symmetry, PCut= 1.00D-04
 Density has only Abelian symmetry.
 Density matrix breaks symmetry, PCut= 1.00D-04
 Density has only Abelian symmetry.
 EnCoef did   100 forward-backward iterations
 Density matrix breaks symmetry, PCut= 1.00D-04
 Density has only Abelian symmetry.
 Density matrix breaks symmetry, PCut= 1.00D-04
 Density has only Abelian symmetry.
 Density matrix breaks symmetry, PCut= 1.00D-04
 Density has only Abelian symmetry.
 Density matrix breaks symmetry, PCut= 1.00D-04
 Density has only Abelian symmetry.
 Density matrix breaks symmetry, PCut= 1.00D-04
 Density has only Abelian symmetry.
 Density matrix breaks symmetry, PCut= 1.00D-04
 Density has only Abelian symmetry.
 Density matrix breaks symmetry, PCut= 1.00D-04
 Density has only Abelian symmetry.
 Density matrix breaks symmetry, PCut= 1.00D-04
 Density has only Abelian symmetry.
 Density matrix breaks symmetry, PCut= 1.00D-04
 Density has only Abelian symmetry.
 Density matrix breaks symmetry, PCut= 1.00D-04
 Density has only Abelian symmetry.
 Density matrix breaks symmetry, PCut= 1.00D-04
 Density has only Abelian symmetry.
 Density matrix breaks symmetry, PCut= 1.00D-04
 Density has only Abelian symmetry.
 Error on total polarization charges =  0.01970
 SCF Done:  E(RB3LYP) =  -9221.45255063     A.U. after   14 cycles
            NFock= 14  Conv=0.22D-08     -V/T= 2.0102

 **********************************************************************

            Population analysis using the SCF density.

 **********************************************************************

 Orbital symmetries:
       Occupied  (?A) (?A) (?A) (?A) (?A) (?A) (?A) (?A) (?A) (?A)
                 (?A) (?A) (?B) (?B) (?B) (?B) (?B) (?B) (?A) (?A)
                 (?A) (?A) (?A) (?A) (?A) (?A) (?A) (?B) (?B) (?B)
                 (?B) (?B) (?B) (?A) (?A) (?A) (?B) (?B) (?B) (?B)
                 (?B) (?B) (A1) (?A) (?A) (?A) (?B) (?B) (?B) (?B)
                 (?B) (?B) (?B) (?B) (?B) (?B) (?B) (?B) (?A) (?A)
                 (?A) (A1) (E) (E) (A1) (E) (E) (E) (E) (A1) (?A)
                 (?A) (?A) (?A) (?A) (?A) (A2) (E) (E) (?A) (?A)
                 (?A) (?A) (?A) (?A) (?C) (?C) (?C)
       Virtual   (E) (E) (?A) (?A) (?A) (A1) (?A) (?A) (?A) (E)
                 (E) (A1) (A1) (E) (E) (E) (E) (E) (E) (A2) (?A)
                 (?A) (?A) (A2) (A1) (E) (E) (?A) (?A) (?A) (?D)
                 (?D) (?D) (?D) (?D) (E) (E) (A1) (A2) (E) (E)
                 (A2) (E) (E) (A1) (E) (E) (A1) (A2) (E) (E) (E)
                 (E) (A1) (A2) (E) (E) (A1) (E) (E) (E) (E) (A1)
                 (E) (E) (A1) (E) (E) (?A) (?A) (?A) (A2) (E) (E)
                 (A2) (E) (E) (A1) (E) (E) (A1) (E) (E) (A1)
 Unable to determine electronic state:  an orbital has unidentified symmetry.
 Alpha  occ. eigenvalues -- -482.74180-482.74173-482.74172-101.44486-101.44477
 Alpha  occ. eigenvalues -- -101.44475 -62.42339 -62.42332 -62.42331 -56.25524
 Alpha  occ. eigenvalues --  -56.25518 -56.25517 -56.25239 -56.25238 -56.25232
 Alpha  occ. eigenvalues --  -56.25231 -56.25231 -56.25230  -9.39826  -9.39822
 Alpha  occ. eigenvalues --   -9.39820  -8.64105  -8.64098  -8.64097  -7.16627
 Alpha  occ. eigenvalues --   -7.16623  -7.16621  -7.15786  -7.15786  -7.15782
 Alpha  occ. eigenvalues --   -7.15782  -7.15781  -7.15781  -6.47287  -6.47280
 Alpha  occ. eigenvalues --   -6.47279  -6.46242  -6.46241  -6.46235  -6.46235
 Alpha  occ. eigenvalues --   -6.46234  -6.46234  -4.00780  -2.58744  -2.58735
 Alpha  occ. eigenvalues --   -2.58735  -2.58444  -2.58444  -2.58439  -2.58438
 Alpha  occ. eigenvalues --   -2.58437  -2.58437  -2.57624  -2.57624  -2.57617
 Alpha  occ. eigenvalues --   -2.57617  -2.57616  -2.57616  -2.22039  -2.22037
 Alpha  occ. eigenvalues --   -2.22036  -0.77582  -0.75174  -0.75171  -0.72464
 Alpha  occ. eigenvalues --   -0.71590  -0.71585  -0.41112  -0.41110  -0.39940
 Alpha  occ. eigenvalues --   -0.39490  -0.39482  -0.39479  -0.32057  -0.32055
 Alpha  occ. eigenvalues --   -0.32032  -0.26264  -0.26065  -0.26064  -0.25544
 Alpha  occ. eigenvalues --   -0.25543  -0.25456  -0.24420  -0.24410  -0.24404
 Alpha  occ. eigenvalues --   -0.23070  -0.23067  -0.23016
 Alpha virt. eigenvalues --   -0.08151  -0.08148   0.05753   0.05768   0.05773
 Alpha virt. eigenvalues --    0.12272   0.24872   0.24874   0.24877   0.36074
 Alpha virt. eigenvalues --    0.36077   0.36572   0.38601   0.44096   0.44100
 Alpha virt. eigenvalues --    0.49411   0.49416   0.55066   0.55071   0.55595
 Alpha virt. eigenvalues --    0.56422   0.57206   0.57217   0.57593   0.57915
 Alpha virt. eigenvalues --    0.59559   0.59561   0.63094   0.63391   0.63395
 Alpha virt. eigenvalues --    0.68874   0.68876   0.69017   0.69159   0.69160
 Alpha virt. eigenvalues --    0.71639   0.71641   0.74995   0.75462   0.79097
 Alpha virt. eigenvalues --    0.79098   0.80315   0.81382   0.81383   0.82123
 Alpha virt. eigenvalues --    0.82895   0.82897   0.83914   0.85811   0.88431
 Alpha virt. eigenvalues --    0.88434   0.96590   0.96591   1.03830   1.05035
 Alpha virt. eigenvalues --    1.05723   1.05729   1.06451   1.12684   1.12685
 Alpha virt. eigenvalues --    1.19896   1.19898   1.22166   1.26433   1.26437
 Alpha virt. eigenvalues --    1.41580   1.50290   1.50295   3.44568   3.45276
 Alpha virt. eigenvalues --    3.45284   3.45415   3.47229   3.47230   3.49996
 Alpha virt. eigenvalues --    3.52758   3.52767   3.57533   3.62231   3.62237
 Alpha virt. eigenvalues --    3.73504   3.78767   3.78767   7.22492
          Condensed to atoms (all electrons):
               1          2          3          4          5          6
     1  Pt  17.443719   0.194786   0.213686   0.213686   0.213440   0.194918
     2  Br   0.194786  35.094063  -0.023028  -0.023028  -0.003250  -0.027256
     3  Cl   0.213686  -0.023028  17.133101  -0.019346  -0.019364  -0.023042
     4  Cl   0.213686  -0.023028  -0.019346  17.133101  -0.019364  -0.003249
     5  Cl   0.213440  -0.003250  -0.019364  -0.019364  17.133446  -0.023032
     6  Br   0.194918  -0.027256  -0.023042  -0.003249  -0.023032  35.093669
     7  Br   0.194918  -0.027256  -0.003249  -0.023042  -0.023032  -0.027280
               7
     1  Pt   0.194918
     2  Br  -0.027256
     3  Cl  -0.003249
     4  Cl  -0.023042
     5  Cl  -0.023032
     6  Br  -0.027280
     7  Br  35.093669
 Mulliken charges:
               1
     1  Pt  -0.669153
     2  Br  -0.185031
     3  Cl  -0.258758
     4  Cl  -0.258758
     5  Cl  -0.258845
     6  Br  -0.184727
     7  Br  -0.184727
 Sum of Mulliken charges =  -2.00000
 Mulliken charges with hydrogens summed into heavy atoms:
               1
     1  Pt  -0.669153
     2  Br  -0.185031
     3  Cl  -0.258758
     4  Cl  -0.258758
     5  Cl  -0.258845
     6  Br  -0.184727
     7  Br  -0.184727
 Electronic spatial extent (au):  <R**2>=           3359.0617
 Charge=             -2.0000 electrons
 Dipole moment (field-independent basis, Debye):
    X=              0.0000    Y=              0.0011    Z=             -2.9273  Tot=              2.9273
 Quadrupole moment (field-independent basis, Debye-Ang):
   XX=           -143.8489   YY=           -143.8469   ZZ=           -144.6668
   XY=              0.0000   XZ=              0.0000   YZ=              0.0060
 Traceless Quadrupole moment (field-independent basis, Debye-Ang):
   XX=              0.2720   YY=              0.2740   ZZ=             -0.5459
   XY=              0.0000   XZ=              0.0000   YZ=              0.0060
 Octapole moment (field-independent basis, Debye-Ang**2):
  XXX=              0.0000  YYY=              0.1313  ZZZ=            -59.5242  XYY=              0.0000
  XXY=             -0.1276  XXZ=            -19.8954  XZZ=              0.0000  YZZ=              0.0036
  YYZ=            -19.8852  XYZ=              0.0000
 Hexadecapole moment (field-independent basis, Debye-Ang**3):
 XXXX=          -1307.5971 YYYY=          -1307.5819 ZZZZ=          -1281.4526 XXXY=              0.0000
 XXXZ=              0.0000 YYYX=              0.0000 YYYZ=              8.5002 ZZZX=              0.0000
 ZZZY=              0.0264 XXYY=           -435.8632 XXZZ=           -438.4882 YYZZ=           -438.4734
 XXYZ=             -8.4689 YYXZ=              0.0000 ZZXY=              0.0000
 N-N= 2.100327331664D+03 E-N=-2.624409302808D+04  KE= 9.128103124701D+03
 Symmetry A'   KE= 5.664180920720D+03
 Symmetry A"   KE= 3.463922203981D+03
 Density matrix has only Abelian symmetry.
   2 Symmetry operations used in ECPInt.
 ECPInt:  NShTT=    2346 NPrTT=   13080 LenC2=    2122 LenP2D=    8157.
 LDataN:  DoStor=T MaxTD1= 7 Len=  274
 D1PCM: PCM CHGder 1st derivatives, ID1Alg=3 FixD1E=F DoIter=F DoCFld=F I1PDM=0.
 Density matrix has only Abelian symmetry.
 Calling FoFJK, ICntrl=      2127 FMM=F ISym2X=1 I1Cent= 0 IOpClX= 0 NMat=1 NMatS=1 NMatT=0.
 Defaulting to unpruned grid for atomic number  78.
 Defaulting to unpruned grid for atomic number  78.
 Defaulting to unpruned grid for atomic number  78.
 Defaulting to unpruned grid for atomic number  78.
 Defaulting to unpruned grid for atomic number  78.
 Defaulting to unpruned grid for atomic number  78.
 Defaulting to unpruned grid for atomic number  78.
 Defaulting to unpruned grid for atomic number  78.
 ***** Axes restored to original set *****
 -------------------------------------------------------------------
 Center     Atomic                   Forces (Hartrees/Bohr)
 Number     Number              X              Y              Z
 -------------------------------------------------------------------
      1       78           0.010649495   -0.010649495   -0.010694109
      2       35           0.000022790   -0.000022790   -0.033850040
      3       17          -0.043750522    0.000303711    0.000302610
      4       17          -0.000303711    0.043750522    0.000302610
      5       17          -0.000110847    0.000110847    0.043497721
      6       35          -0.000389554   -0.033882349    0.000220604
      7       35           0.033882349    0.000389554    0.000220604
 -------------------------------------------------------------------
 Cartesian Forces:  Max     0.043750522 RMS     0.021273840

 GradGradGradGradGradGradGradGradGradGradGradGradGradGradGradGradGradGrad
 Berny optimization.
 FormGI is forming the generalized inverse of G from B-inverse, IUseBI=4.
 Internal  Forces:  Max     0.043750373 RMS     0.016923810
 Search for a local minimum.
 Step number   1 out of a maximum of   42
 All quantities printed in internal units (Hartrees-Bohrs-Radians)
 Mixed Optimization -- RFO/linear search
 Second derivative matrix not updated -- first step.
 ITU=  0
     Eigenvalues ---    0.07634   0.08487   0.08487   0.09782   0.09892
     Eigenvalues ---    0.12615   0.12615   0.18704   0.19509   0.19509
     Eigenvalues ---    0.19509   0.21640   0.22001   0.22001   0.22001
 RFO step:  Lambda=-3.70946764D-02 EMin= 7.63417371D-02
 Linear search not attempted -- first point.
 Maximum step size (   0.300) exceeded in Quadratic search.
    -- Step size scaled by   0.773
 Iteration  1 RMS(Cart)=  0.05294121 RMS(Int)=  0.00004736
 Iteration  2 RMS(Cart)=  0.00007050 RMS(Int)=  0.00000122
 Iteration  3 RMS(Cart)=  0.00000000 RMS(Int)=  0.00000122
 Variable       Old X    -DE/DX   Delta X   Delta X   Delta X     New X
                                 (Linear)    (Quad)   (Total)
    R1        4.59203   0.03385   0.00000   0.11274   0.11274   4.70477
    R2        4.30858   0.04375   0.00000   0.13159   0.13159   4.44016
    R3        4.30858   0.04375   0.00000   0.13159   0.13159   4.44016
    R4        4.30858   0.04350   0.00000   0.13083   0.13083   4.43940
    R5        4.59203   0.03388   0.00000   0.11285   0.11285   4.70488
    R6        4.59203   0.03388   0.00000   0.11285   0.11285   4.70488
    A1        1.57080   0.00014   0.00000   0.00116   0.00116   1.57196
    A2        1.57080   0.00022   0.00000   0.00128   0.00128   1.57207
    A3        1.57080   0.00017   0.00000   0.00116   0.00116   1.57196
    A4        1.57080   0.00030   0.00000   0.00134   0.00134   1.57213
    A5        1.57080  -0.00044   0.00000  -0.00305  -0.00306   1.56774
    A6        1.57080  -0.00025   0.00000  -0.00165  -0.00165   1.56914
    A7        1.57080  -0.00023   0.00000  -0.00043  -0.00043   1.57037
    A8        1.57080  -0.00028   0.00000  -0.00168  -0.00168   1.56911
    A9        1.57080  -0.00023   0.00000  -0.00043  -0.00043   1.57037
   A10        1.57080  -0.00011   0.00000  -0.00076  -0.00076   1.57004
   A11        1.57080  -0.00019   0.00000  -0.00084  -0.00085   1.56995
   A12        1.57080   0.00089   0.00000   0.00391   0.00391   1.57471
   A13        3.14159  -0.00010   0.00000  -0.00049  -0.00049   3.14110
   A14        3.14159   0.00044   0.00000   0.00250   0.00250   3.14409
   A15        3.14159   0.00039   0.00000   0.00244   0.00244   3.14403
   A16        3.14159   0.00006   0.00000   0.00040   0.00040   3.14199
   A17        3.14159  -0.00067   0.00000  -0.00348  -0.00348   3.13811
   A18        3.14159   0.00067   0.00000   0.00348   0.00348   3.14508
    D1        1.57080   0.00014   0.00000   0.00116   0.00116   1.57195
    D2       -1.57080  -0.00014   0.00000  -0.00116  -0.00116  -1.57196
    D3        1.57080   0.00022   0.00000   0.00128   0.00128   1.57207
    D4       -1.57080  -0.00017   0.00000  -0.00116  -0.00117  -1.57196
    D5       -1.57080   0.00044   0.00000   0.00305   0.00305  -1.56774
    D6       -1.57080   0.00025   0.00000   0.00165   0.00165  -1.56914
    D7        1.57080  -0.00028   0.00000  -0.00168  -0.00168   1.56912
    D8        1.57080  -0.00011   0.00000  -0.00076  -0.00076   1.57003
         Item               Value     Threshold  Converged?
 Maximum Force            0.043750     0.000450     NO 
 RMS     Force            0.016924     0.000300     NO 
 Maximum Displacement     0.126359     0.001800     NO 
 RMS     Displacement     0.052941     0.001200     NO 
 Predicted change in Energy=-1.926371D-02
 GradGradGradGradGradGradGradGradGradGradGradGradGradGradGradGradGradGrad

                          Input orientation:                          
 ---------------------------------------------------------------------
 Center     Atomic      Atomic             Coordinates (Angstroms)
 Number     Number       Type             X           Y           Z
 ---------------------------------------------------------------------
      1         78           0       -0.316755    0.335584   -0.003069
      2         35           0       -0.317240    0.335833   -2.492726
      3         17           0       -2.666384    0.339172    0.000117
      4         17           0       -0.320343    2.685212    0.000171
      5         17           0       -0.317450    0.336294    2.346163
      6         35           0       -0.321623   -2.154125   -0.000426
      7         35           0        2.172954    0.340451   -0.000229
 ---------------------------------------------------------------------
                    Distance matrix (angstroms):
                    1          2          3          4          5
     1  Pt   0.000000
     2  Br   2.489658   0.000000
     3  Cl   2.349633   3.425311   0.000000
     4  Cl   2.349633   3.425511   3.317802   0.000000
     5  Cl   2.349232   4.838889   3.319854   3.319805   0.000000
     6  Br   2.489715   3.522992   3.422636   4.839338   3.421796
     7  Br   2.489715   3.523298   4.839338   3.422636   3.421649
                    6          7
     6  Br   0.000000
     7  Br   3.527864   0.000000
 Stoichiometry    Br3Cl3Pt(2-)
 Framework group  C1[X(Br3Cl3Pt)]
 Deg. of freedom    15
 Full point group                 C1      NOp   1
 Omega: Change in point group or standard orientation.

 Old FWG=C03V [C3(Pt1),3SGV(Br1Cl1)]
 New FWG=C01  [X(Br3Cl3Pt1)]
 Largest Abelian subgroup         C1      NOp   1
 Largest concise Abelian subgroup C1      NOp   1
                         Standard orientation:                         
 ---------------------------------------------------------------------
 Center     Atomic      Atomic             Coordinates (Angstroms)
 Number     Number       Type             X           Y           Z
 ---------------------------------------------------------------------
      1         78           0        0.000282   -0.002309    0.347340
      2         35           0       -0.077368    2.039430   -1.075217
      3         17           0       -1.692420    0.883146    1.715370
      4         17           0        1.623040    1.007788    1.713771
      5         17           0        0.073375   -1.928045    1.690876
      6         35           0       -1.725289   -1.074338   -1.092050
      7         35           0        1.800089   -0.941920   -1.093670
 ---------------------------------------------------------------------
 Rotational constants (GHZ):      0.3915334      0.3910974      0.3700514
 Basis read from rwf:  (5D, 7F)
 Pseudo-potential data read from rwf file.
 There are   186 symmetry adapted cartesian basis functions of A   symmetry.
 There are   172 symmetry adapted basis functions of A   symmetry.
   172 basis functions,   394 primitive gaussians,   186 cartesian basis functions
    88 alpha electrons       88 beta electrons
       nuclear repulsion energy      2045.4968542776 Hartrees.
 NAtoms=    7 NActive=    7 NUniq=    7 SFac= 1.00D+00 NAtFMM=   60 NAOKFM=F Big=F
 Integral buffers will be    131072 words long.
 Raffenetti 2 integral format.
 Two-electron integral symmetry is turned on.
 ------------------------------------------------------------------------------
 Polarizable Continuum Model (PCM)
 =================================
 Model                : PCM (using non-symmetric T matrix).
 Atomic radii         : UFF (Universal Force Field).
 Polarization charges : Total charges.
 Charge compensation  : None.
 Solution method      : On-the-fly selection.
 Cavity type          : Scaled VdW (van der Waals Surface) (Alpha=1.100).
 Cavity algorithm     : GePol (No added spheres)
                        Default sphere list used, NSphG=    7.
                        Lebedev-Laikov grids with approx.  5.0 points / Ang**2.
                        Smoothing algorithm: Karplus/York (Gamma=1.0000).
                        Polarization charges: spherical gaussians, with
                                              point-specific exponents (IZeta= 3).
                        Self-potential: point-specific (ISelfS= 7).
                        Self-field    : sphere-specific E.n sum rule (ISelfD= 2).
 1st derivatives      : Analytical E(r).r(x)/FMM algorithm (CHGder, D1EAlg=3).
                        Cavity 1st derivative terms included.
 Solvent              : Water, Eps=  78.355300 Eps(inf)=   1.777849
 ------------------------------------------------------------------------------
 Spheres list:
 ISph  on   Nord     Re0    Alpha      Xe            Ye            Ze
    1  Pt      1    1.3770  1.100      0.000282     -0.002309      0.347340
    2  Br      2    2.0945  1.100     -0.077368      2.039430     -1.075217
    3  Cl      3    1.9735  1.100     -1.692420      0.883146      1.715370
    4  Cl      4    1.9735  1.100      1.623040      1.007788      1.713771
    5  Cl      5    1.9735  1.100      0.073375     -1.928045      1.690876
    6  Br      6    2.0945  1.100     -1.725289     -1.074338     -1.092050
    7  Br      7    2.0945  1.100      1.800089     -0.941920     -1.093670
 ------------------------------------------------------------------------------
 One-electron integrals computed using PRISM.
   1 Symmetry operations used in ECPInt.
 ECPInt:  NShTT=    2346 NPrTT=   13080 LenC2=    2116 LenP2D=    8062.
 LDataN:  DoStor=T MaxTD1= 6 Len=  172
 NBasis=   172 RedAO= T EigKep=  5.65D-03  NBF=   172
 NBsUse=   172 1.00D-06 EigRej= -1.00D+00 NBFU=   172
 Defaulting to unpruned grid for atomic number  78.
 Initial guess from the checkpoint file:  "/home/scr/diego/Gau-4018.chk"
 B after Tr=     0.000000    0.000000    0.000000
         Rot=    0.999818   -0.003415   -0.000309   -0.018794 Ang=  -2.19 deg.
 ExpMin= 2.90D-02 ExpMax= 1.13D+05 ExpMxC= 1.70D+04 IAcc=3 IRadAn=         5 AccDes= 0.00D+00
 Harris functional with IExCor=  402 and IRadAn=       5 diagonalized for initial guess.
 HarFok:  IExCor=  402 AccDes= 0.00D+00 IRadAn=         5 IDoV= 1 UseB2=F ITyADJ=14
 ICtDFT=  3500011 ScaDFX=  1.000000  1.000000  1.000000  1.000000
 Defaulting to unpruned grid for atomic number  78.
 Defaulting to unpruned grid for atomic number  78.
 Defaulting to unpruned grid for atomic number  78.
 Defaulting to unpruned grid for atomic number  78.
 Defaulting to unpruned grid for atomic number  78.
 Defaulting to unpruned grid for atomic number  78.
 Defaulting to unpruned grid for atomic number  78.
 Defaulting to unpruned grid for atomic number  78.
 FoFCou: FMM=F IPFlag=           0 FMFlag=      100000 FMFlg1=           0
         NFxFlg=           0 DoJE=T BraDBF=F KetDBF=T FulRan=T
         wScrn=  0.000000 ICntrl=     500 IOpCl=  0 I1Cent=   200000004 NGrid=           0
         NMat0=    1 NMatS0=      1 NMatT0=    0 NMatD0=    1 NMtDS0=    0 NMtDT0=    0
 Petite list used in FoFCou.
 Keep R1 ints in memory in canonical form, NReq=116124301.
 Requested convergence on RMS density matrix=1.00D-08 within 128 cycles.
 Requested convergence on MAX density matrix=1.00D-06.
 Requested convergence on             energy=1.00D-06.
 No special actions if energy rises.
 Defaulting to unpruned grid for atomic number  78.
 Defaulting to unpruned grid for atomic number  78.
 Defaulting to unpruned grid for atomic number  78.
 Defaulting to unpruned grid for atomic number  78.
 Defaulting to unpruned grid for atomic number  78.
 Defaulting to unpruned grid for atomic number  78.
 Defaulting to unpruned grid for atomic number  78.
 Defaulting to unpruned grid for atomic number  78.
 Inv3:  Mode=1 IEnd=     6006675.
 Iteration    1 A*A^-1 deviation from unit magnitude is 5.77D-15 for    959.
 Iteration    1 A*A^-1 deviation from orthogonality  is 4.42D-15 for   1144    752.
 Iteration    1 A^-1*A deviation from unit magnitude is 6.44D-15 for    469.
 Iteration    1 A^-1*A deviation from orthogonality  is 1.87D-15 for   1093    809.
 Error on total polarization charges =  0.01889
 SCF Done:  E(RB3LYP) =  -9221.47288947     A.U. after   10 cycles
            NFock= 10  Conv=0.35D-08     -V/T= 2.0103
   1 Symmetry operations used in ECPInt.
 ECPInt:  NShTT=    2346 NPrTT=   13080 LenC2=    2116 LenP2D=    8062.
 LDataN:  DoStor=T MaxTD1= 7 Len=  274
 D1PCM: PCM CHGder 1st derivatives, ID1Alg=3 FixD1E=F DoIter=F DoCFld=F I1PDM=0.
 Calling FoFJK, ICntrl=      2127 FMM=F ISym2X=0 I1Cent= 0 IOpClX= 0 NMat=1 NMatS=1 NMatT=0.
 Defaulting to unpruned grid for atomic number  78.
 Defaulting to unpruned grid for atomic number  78.
 Defaulting to unpruned grid for atomic number  78.
 Defaulting to unpruned grid for atomic number  78.
 Defaulting to unpruned grid for atomic number  78.
 Defaulting to unpruned grid for atomic number  78.
 Defaulting to unpruned grid for atomic number  78.
 Defaulting to unpruned grid for atomic number  78.
 ***** Axes restored to original set *****
 -------------------------------------------------------------------
 Center     Atomic                   Forces (Hartrees/Bohr)
 Number     Number              X              Y              Z
 -------------------------------------------------------------------
      1       78           0.004144593   -0.004258281   -0.004368796
      2       35           0.000228860    0.000573984   -0.014904938
      3       17          -0.019093195   -0.000091284    0.000196618
      4       17          -0.000401241    0.018993345   -0.000398345
      5       17           0.000155814   -0.000085800    0.019312385
      6       35          -0.000035016   -0.015190300    0.000295608
      7       35           0.015000185    0.000058335   -0.000132532
 -------------------------------------------------------------------
 Cartesian Forces:  Max     0.019312385 RMS     0.009338757

 GradGradGradGradGradGradGradGradGradGradGradGradGradGradGradGradGradGrad
 Berny optimization.
 Using GEDIIS/GDIIS optimizer.
 FormGI is forming the generalized inverse of G from B-inverse, IUseBI=4.
 Internal  Forces:  Max     0.019311896 RMS     0.007455513
 Search for a local minimum.
 Step number   2 out of a maximum of   42
 All quantities printed in internal units (Hartrees-Bohrs-Radians)
 Mixed Optimization -- RFO/linear search
 Update second derivatives using D2CorX and points    1    2
 DE= -2.03D-02 DEPred=-1.93D-02 R= 1.06D+00
 TightC=F SS=  1.41D+00  RLast= 3.00D-01 DXNew= 5.0454D-01 9.0010D-01
 Trust test= 1.06D+00 RLast= 3.00D-01 DXMaxT set to 5.05D-01
 ITU=  1  0
 Use linear search instead of GDIIS.
     Eigenvalues ---    0.07634   0.08484   0.08488   0.09785   0.09891
     Eigenvalues ---    0.12595   0.12610   0.17543   0.18717   0.19509
     Eigenvalues ---    0.19511   0.20866   0.21649   0.22001   0.22005
 RFO step:  Lambda=-1.15882080D-04 EMin= 7.63360455D-02
 Quartic linear search produced a step of  1.01335.
 Iteration  1 RMS(Cart)=  0.05477700 RMS(Int)=  0.00013698
 Iteration  2 RMS(Cart)=  0.00024908 RMS(Int)=  0.00001054
 Iteration  3 RMS(Cart)=  0.00000003 RMS(Int)=  0.00001054
 Variable       Old X    -DE/DX   Delta X   Delta X   Delta X     New X
                                 (Linear)    (Quad)   (Total)
    R1        4.70477   0.01491   0.11424   0.00180   0.11604   4.82081
    R2        4.44016   0.01909   0.13334  -0.00211   0.13124   4.57140
    R3        4.44016   0.01899   0.13334  -0.00301   0.13034   4.57050
    R4        4.43940   0.01931   0.13258   0.00092   0.13349   4.57290
    R5        4.70488   0.01519   0.11435   0.00458   0.11893   4.82381
    R6        4.70488   0.01500   0.11435   0.00263   0.11698   4.82186
    A1        1.57196   0.00024   0.00118   0.00395   0.00513   1.57709
    A2        1.57207  -0.00063   0.00130  -0.01373  -0.01242   1.55966
    A3        1.57196   0.00054   0.00118   0.00804   0.00922   1.58118
    A4        1.57213  -0.00033   0.00135  -0.00716  -0.00581   1.56633
    A5        1.56774  -0.00019  -0.00310   0.00078  -0.00232   1.56542
    A6        1.56914   0.00008  -0.00167   0.00399   0.00232   1.57146
    A7        1.57037  -0.00020  -0.00044  -0.00287  -0.00330   1.56707
    A8        1.56911   0.00025  -0.00170   0.00523   0.00354   1.57265
    A9        1.57037   0.00035  -0.00044   0.00589   0.00544   1.57581
   A10        1.57004  -0.00015  -0.00077   0.00048  -0.00028   1.56976
   A11        1.56995   0.00001  -0.00086  -0.00080  -0.00164   1.56831
   A12        1.57471   0.00004   0.00396  -0.00377   0.00018   1.57489
   A13        3.14110   0.00032  -0.00050   0.00794   0.00744   3.14855
   A14        3.14409  -0.00008   0.00253  -0.00321  -0.00068   3.14341
   A15        3.14403  -0.00010   0.00247  -0.00569  -0.00320   3.14083
   A16        3.14199   0.00038   0.00041   0.00852   0.00892   3.15091
   A17        3.13811   0.00016  -0.00353   0.00663   0.00310   3.14121
   A18        3.14508   0.00039   0.00353   0.00209   0.00563   3.15070
    D1        1.57195   0.00025   0.00117   0.00399   0.00519   1.57715
    D2       -1.57196  -0.00024  -0.00118  -0.00394  -0.00509  -1.57705
    D3        1.57207  -0.00063   0.00129  -0.01372  -0.01244   1.55963
    D4       -1.57196  -0.00054  -0.00118  -0.00801  -0.00920  -1.58116
    D5       -1.56774   0.00019   0.00309  -0.00076   0.00232  -1.56542
    D6       -1.56914  -0.00008   0.00167  -0.00399  -0.00232  -1.57146
    D7        1.56912   0.00025  -0.00170   0.00523   0.00353   1.57264
    D8        1.57003  -0.00015  -0.00077   0.00048  -0.00028   1.56975
         Item               Value     Threshold  Converged?
 Maximum Force            0.019312     0.000450     NO 
 RMS     Force            0.007456     0.000300     NO 
 Maximum Displacement     0.133404     0.001800     NO 
 RMS     Displacement     0.054806     0.001200     NO 
 Predicted change in Energy=-4.593202D-03
 GradGradGradGradGradGradGradGradGradGradGradGradGradGradGradGradGradGrad

                          Input orientation:                          
 ---------------------------------------------------------------------
 Center     Atomic      Atomic             Coordinates (Angstroms)
 Number     Number       Type             X           Y           Z
 ---------------------------------------------------------------------
      1         78           0       -0.316316    0.332578   -0.003104
      2         35           0       -0.305338    0.351932   -2.554069
      3         17           0       -2.735392    0.333479    0.001711
      4         17           0       -0.328441    2.751137   -0.011750
      5         17           0       -0.309894    0.336766    2.416757
      6         35           0       -0.326767   -2.220043    0.003985
      7         35           0        2.235305    0.332572   -0.003530
 ---------------------------------------------------------------------
                    Distance matrix (angstroms):
                    1          2          3          4          5
     1  Pt   0.000000
     2  Br   2.551062   0.000000
     3  Cl   2.419081   3.526685   0.000000
     4  Cl   2.418605   3.495727   3.411549   0.000000
     5  Cl   2.419873   4.970851   3.422791   3.424497   0.000000
     6  Br   2.552652   3.627554   3.510264   4.971205   3.515541
     7  Br   2.551620   3.600068   4.970700   3.524531   3.512242
                    6          7
     6  Br   0.000000
     7  Br   3.616643   0.000000
 Stoichiometry    Br3Cl3Pt(2-)
 Framework group  C1[X(Br3Cl3Pt)]
 Deg. of freedom    15
 Full point group                 C1      NOp   1
 Largest Abelian subgroup         C1      NOp   1
 Largest concise Abelian subgroup C1      NOp   1
                         Standard orientation:                         
 ---------------------------------------------------------------------
 Center     Atomic      Atomic             Coordinates (Angstroms)
 Number     Number       Type             X           Y           Z
 ---------------------------------------------------------------------
      1         78           0       -0.008066    0.014233    0.353797
      2         35           0        1.576235    1.346340   -1.137310
      3         17           0       -0.454208    1.992302    1.672947
      4         17           0        1.850838   -0.519204    1.806232
      5         17           0       -1.490554   -1.268304    1.772639
      6         35           0       -1.973024    0.597352   -1.167698
      7         35           0        0.460386   -2.074883   -1.034336
 ---------------------------------------------------------------------
 Rotational constants (GHZ):      0.3728044      0.3702798      0.3509067
 Basis read from rwf:  (5D, 7F)
 Pseudo-potential data read from rwf file.
 There are   186 symmetry adapted cartesian basis functions of A   symmetry.
 There are   172 symmetry adapted basis functions of A   symmetry.
   172 basis functions,   394 primitive gaussians,   186 cartesian basis functions
    88 alpha electrons       88 beta electrons
       nuclear repulsion energy      1992.5251123493 Hartrees.
 NAtoms=    7 NActive=    7 NUniq=    7 SFac= 1.00D+00 NAtFMM=   60 NAOKFM=F Big=F
 Integral buffers will be    131072 words long.
 Raffenetti 2 integral format.
 Two-electron integral symmetry is turned on.
 ------------------------------------------------------------------------------
 Polarizable Continuum Model (PCM)
 =================================
 Model                : PCM (using non-symmetric T matrix).
 Atomic radii         : UFF (Universal Force Field).
 Polarization charges : Total charges.
 Charge compensation  : None.
 Solution method      : On-the-fly selection.
 Cavity type          : Scaled VdW (van der Waals Surface) (Alpha=1.100).
 Cavity algorithm     : GePol (No added spheres)
                        Default sphere list used, NSphG=    7.
                        Lebedev-Laikov grids with approx.  5.0 points / Ang**2.
                        Smoothing algorithm: Karplus/York (Gamma=1.0000).
                        Polarization charges: spherical gaussians, with
                                              point-specific exponents (IZeta= 3).
                        Self-potential: point-specific (ISelfS= 7).
                        Self-field    : sphere-specific E.n sum rule (ISelfD= 2).
 1st derivatives      : Analytical E(r).r(x)/FMM algorithm (CHGder, D1EAlg=3).
                        Cavity 1st derivative terms included.
 Solvent              : Water, Eps=  78.355300 Eps(inf)=   1.777849
 ------------------------------------------------------------------------------
 Spheres list:
 ISph  on   Nord     Re0    Alpha      Xe            Ye            Ze
    1  Pt      1    1.3770  1.100     -0.008066      0.014233      0.353797
    2  Br      2    2.0945  1.100      1.576235      1.346340     -1.137310
    3  Cl      3    1.9735  1.100     -0.454208      1.992302      1.672947
    4  Cl      4    1.9735  1.100      1.850838     -0.519204      1.806232
    5  Cl      5    1.9735  1.100     -1.490554     -1.268304      1.772639
    6  Br      6    2.0945  1.100     -1.973024      0.597352     -1.167698
    7  Br      7    2.0945  1.100      0.460386     -2.074883     -1.034336
 ------------------------------------------------------------------------------
 One-electron integrals computed using PRISM.
   1 Symmetry operations used in ECPInt.
 ECPInt:  NShTT=    2346 NPrTT=   13080 LenC2=    2090 LenP2D=    7963.
 LDataN:  DoStor=T MaxTD1= 6 Len=  172
 NBasis=   172 RedAO= T EigKep=  6.56D-03  NBF=   172
 NBsUse=   172 1.00D-06 EigRej= -1.00D+00 NBFU=   172
 Defaulting to unpruned grid for atomic number  78.
 Initial guess from the checkpoint file:  "/home/scr/diego/Gau-4018.chk"
 B after Tr=     0.000000    0.000000    0.000000
         Rot=    0.906217    0.016444    0.014730    0.422236 Ang=  50.02 deg.
 ExpMin= 2.90D-02 ExpMax= 1.13D+05 ExpMxC= 1.70D+04 IAcc=3 IRadAn=         5 AccDes= 0.00D+00
 Harris functional with IExCor=  402 and IRadAn=       5 diagonalized for initial guess.
 HarFok:  IExCor=  402 AccDes= 0.00D+00 IRadAn=         5 IDoV= 1 UseB2=F ITyADJ=14
 ICtDFT=  3500011 ScaDFX=  1.000000  1.000000  1.000000  1.000000
 Defaulting to unpruned grid for atomic number  78.
 Defaulting to unpruned grid for atomic number  78.
 Defaulting to unpruned grid for atomic number  78.
 Defaulting to unpruned grid for atomic number  78.
 Defaulting to unpruned grid for atomic number  78.
 Defaulting to unpruned grid for atomic number  78.
 Defaulting to unpruned grid for atomic number  78.
 Defaulting to unpruned grid for atomic number  78.
 FoFCou: FMM=F IPFlag=           0 FMFlag=      100000 FMFlg1=           0
         NFxFlg=           0 DoJE=T BraDBF=F KetDBF=T FulRan=T
         wScrn=  0.000000 ICntrl=     500 IOpCl=  0 I1Cent=   200000004 NGrid=           0
         NMat0=    1 NMatS0=      1 NMatT0=    0 NMatD0=    1 NMtDS0=    0 NMtDT0=    0
 Petite list used in FoFCou.
 Keep R1 ints in memory in canonical form, NReq=116234411.
 Requested convergence on RMS density matrix=1.00D-08 within 128 cycles.
 Requested convergence on MAX density matrix=1.00D-06.
 Requested convergence on             energy=1.00D-06.
 No special actions if energy rises.
 Defaulting to unpruned grid for atomic number  78.
 Defaulting to unpruned grid for atomic number  78.
 Defaulting to unpruned grid for atomic number  78.
 Defaulting to unpruned grid for atomic number  78.
 Defaulting to unpruned grid for atomic number  78.
 Defaulting to unpruned grid for atomic number  78.
 Defaulting to unpruned grid for atomic number  78.
 Defaulting to unpruned grid for atomic number  78.
 Inv3:  Mode=1 IEnd=     6324912.
 Iteration    1 A*A^-1 deviation from unit magnitude is 5.77D-15 for    245.
 Iteration    1 A*A^-1 deviation from orthogonality  is 2.94D-15 for   1035    692.
 Iteration    1 A^-1*A deviation from unit magnitude is 5.66D-15 for    298.
 Iteration    1 A^-1*A deviation from orthogonality  is 1.68D-15 for   1110    777.
 Error on total polarization charges =  0.01815
 SCF Done:  E(RB3LYP) =  -9221.47936867     A.U. after   11 cycles
            NFock= 11  Conv=0.38D-08     -V/T= 2.0103
   1 Symmetry operations used in ECPInt.
 ECPInt:  NShTT=    2346 NPrTT=   13080 LenC2=    2090 LenP2D=    7963.
 LDataN:  DoStor=T MaxTD1= 7 Len=  274
 D1PCM: PCM CHGder 1st derivatives, ID1Alg=3 FixD1E=F DoIter=F DoCFld=F I1PDM=0.
 Calling FoFJK, ICntrl=      2127 FMM=F ISym2X=0 I1Cent= 0 IOpClX= 0 NMat=1 NMatS=1 NMatT=0.
 Defaulting to unpruned grid for atomic number  78.
 Defaulting to unpruned grid for atomic number  78.
 Defaulting to unpruned grid for atomic number  78.
 Defaulting to unpruned grid for atomic number  78.
 Defaulting to unpruned grid for atomic number  78.
 Defaulting to unpruned grid for atomic number  78.
 Defaulting to unpruned grid for atomic number  78.
 Defaulting to unpruned grid for atomic number  78.
 ***** Axes restored to original set *****
 -------------------------------------------------------------------
 Center     Atomic                   Forces (Hartrees/Bohr)
 Number     Number              X              Y              Z
 -------------------------------------------------------------------
      1       78           0.000405970   -0.000154345   -0.000091567
      2       35          -0.000335868   -0.000702827   -0.000574040
      3       17          -0.001090074   -0.000053482   -0.000145056
      4       17           0.000212306    0.001225930    0.000421180
      5       17          -0.000159618    0.000063234    0.000761792
      6       35           0.000348769   -0.000314474   -0.000272690
      7       35           0.000618514   -0.000064035   -0.000099619
 -------------------------------------------------------------------
 Cartesian Forces:  Max     0.001225930 RMS     0.000505782

 GradGradGradGradGradGradGradGradGradGradGradGradGradGradGradGradGradGrad
 Berny optimization.
 Using GEDIIS/GDIIS optimizer.
 FormGI is forming the generalized inverse of G from B-inverse, IUseBI=4.
 Internal  Forces:  Max     0.001223414 RMS     0.000496959
 Search for a local minimum.
 Step number   3 out of a maximum of   42
 All quantities printed in internal units (Hartrees-Bohrs-Radians)
 Mixed Optimization -- En-DIIS/RFO-DIIS
 Update second derivatives using D2CorX and points    2    3
 DE= -6.48D-03 DEPred=-4.59D-03 R= 1.41D+00
 TightC=F SS=  1.41D+00  RLast= 3.07D-01 DXNew= 8.4853D-01 9.2073D-01
 Trust test= 1.41D+00 RLast= 3.07D-01 DXMaxT set to 8.49D-01
 ITU=  1  1  0
 Use linear search instead of GDIIS.
     Eigenvalues ---    0.07637   0.08487   0.08507   0.09774   0.09907
     Eigenvalues ---    0.12615   0.12671   0.13088   0.18708   0.19509
     Eigenvalues ---    0.19510   0.20630   0.21651   0.22001   0.22004
 RFO step:  Lambda=-4.37684342D-05 EMin= 7.63739760D-02
 Quartic linear search produced a step of  0.04817.
 Iteration  1 RMS(Cart)=  0.00677103 RMS(Int)=  0.00001533
 Iteration  2 RMS(Cart)=  0.00001707 RMS(Int)=  0.00000608
 Iteration  3 RMS(Cart)=  0.00000000 RMS(Int)=  0.00000608
 Variable       Old X    -DE/DX   Delta X   Delta X   Delta X     New X
                                 (Linear)    (Quad)   (Total)
    R1        4.82081   0.00057   0.00559   0.00012   0.00571   4.82652
    R2        4.57140   0.00109   0.00632   0.00180   0.00813   4.57953
    R3        4.57050   0.00122   0.00628   0.00245   0.00873   4.57923
    R4        4.57290   0.00076   0.00643   0.00021   0.00664   4.57954
    R5        4.82381   0.00031   0.00573  -0.00130   0.00443   4.82825
    R6        4.82186   0.00062   0.00564   0.00038   0.00601   4.82788
    A1        1.57709  -0.00030   0.00025  -0.00420  -0.00395   1.57313
    A2        1.55966   0.00074  -0.00060   0.00755   0.00696   1.56662
    A3        1.58118  -0.00065   0.00044  -0.00633  -0.00588   1.57529
    A4        1.56633   0.00014  -0.00028   0.00187   0.00159   1.56791
    A5        1.56542   0.00021  -0.00011   0.00303   0.00293   1.56834
    A6        1.57146  -0.00011   0.00011  -0.00071  -0.00060   1.57086
    A7        1.56707   0.00041  -0.00016   0.00261   0.00245   1.56952
    A8        1.57265  -0.00023   0.00017  -0.00109  -0.00091   1.57174
    A9        1.57581  -0.00012   0.00026  -0.00186  -0.00159   1.57422
   A10        1.56976   0.00012  -0.00001  -0.00021  -0.00022   1.56954
   A11        1.56831   0.00027  -0.00008   0.00305   0.00297   1.57128
   A12        1.57489  -0.00050   0.00001  -0.00379  -0.00378   1.57111
   A13        3.14855  -0.00041   0.00036  -0.00491  -0.00455   3.14399
   A14        3.14341  -0.00016  -0.00003  -0.00233  -0.00237   3.14105
   A15        3.14083   0.00010  -0.00015   0.00122   0.00108   3.14191
   A16        3.15091  -0.00052   0.00043  -0.00651  -0.00608   3.14483
   A17        3.14121   0.00009   0.00015   0.00122   0.00136   3.14257
   A18        3.15070  -0.00062   0.00027  -0.00565  -0.00538   3.14533
    D1        1.57715  -0.00031   0.00025  -0.00428  -0.00401   1.57314
    D2       -1.57705   0.00029  -0.00025   0.00415   0.00392  -1.57313
    D3        1.55963   0.00075  -0.00060   0.00757   0.00697   1.56661
    D4       -1.58116   0.00064  -0.00044   0.00631   0.00587  -1.57529
    D5       -1.56542  -0.00021   0.00011  -0.00303  -0.00292  -1.56834
    D6       -1.57146   0.00011  -0.00011   0.00071   0.00060  -1.57086
    D7        1.57264  -0.00023   0.00017  -0.00107  -0.00090   1.57174
    D8        1.56975   0.00012  -0.00001  -0.00019  -0.00021   1.56954
         Item               Value     Threshold  Converged?
 Maximum Force            0.001223     0.000450     NO 
 RMS     Force            0.000497     0.000300     NO 
 Maximum Displacement     0.017956     0.001800     NO 
 RMS     Displacement     0.006778     0.001200     NO 
 Predicted change in Energy=-3.297118D-05
 GradGradGradGradGradGradGradGradGradGradGradGradGradGradGradGradGradGrad

                          Input orientation:                          
 ---------------------------------------------------------------------
 Center     Atomic      Atomic             Coordinates (Angstroms)
 Number     Number       Type             X           Y           Z
 ---------------------------------------------------------------------
      1         78           0       -0.316444    0.334920   -0.002687
      2         35           0       -0.311669    0.342430   -2.556754
      3         17           0       -2.739825    0.334870   -0.001559
      4         17           0       -0.322440    2.758136   -0.005703
      5         17           0       -0.315155    0.335648    2.420700
      6         35           0       -0.319663   -2.220073    0.001284
      7         35           0        2.238355    0.332490   -0.005280
 ---------------------------------------------------------------------
                    Distance matrix (angstroms):
                    1          2          3          4          5
     1  Pt   0.000000
     2  Br   2.554082   0.000000
     3  Cl   2.423381   3.524915   0.000000
     4  Cl   2.423226   3.513348   3.422862   0.000000
     5  Cl   2.423388   4.977460   3.427297   3.428693   0.000000
     6  Br   2.554998   3.620779   3.519222   4.978215   3.519276
     7  Br   2.554802   3.607318   4.978182   3.527241   3.522188
                    6          7
     6  Br   0.000000
     7  Br   3.613735   0.000000
 Stoichiometry    Br3Cl3Pt(2-)
 Framework group  C1[X(Br3Cl3Pt)]
 Deg. of freedom    15
 Full point group                 C1      NOp   1
 Largest Abelian subgroup         C1      NOp   1
 Largest concise Abelian subgroup C1      NOp   1
                         Standard orientation:                         
 ---------------------------------------------------------------------
 Center     Atomic      Atomic             Coordinates (Angstroms)
 Number     Number       Type             X           Y           Z
 ---------------------------------------------------------------------
      1         78           0       -0.002872    0.008830    0.356194
      2         35           0        1.634317    1.279158   -1.136862
      3         17           0       -0.322246    1.995820    1.706249
      4         17           0        1.835736   -0.659880    1.786009
      5         17           0       -1.549573   -1.203462    1.774246
      6         35           0       -1.943224    0.721335   -1.145600
      7         35           0        0.332835   -2.084520   -1.069358
 ---------------------------------------------------------------------
 Rotational constants (GHZ):      0.3710432      0.3697702      0.3506483
 Basis read from rwf:  (5D, 7F)
 Pseudo-potential data read from rwf file.
 There are   186 symmetry adapted cartesian basis functions of A   symmetry.
 There are   172 symmetry adapted basis functions of A   symmetry.
   172 basis functions,   394 primitive gaussians,   186 cartesian basis functions
    88 alpha electrons       88 beta electrons
       nuclear repulsion energy      1990.2790395403 Hartrees.
 NAtoms=    7 NActive=    7 NUniq=    7 SFac= 1.00D+00 NAtFMM=   60 NAOKFM=F Big=F
 Integral buffers will be    131072 words long.
 Raffenetti 2 integral format.
 Two-electron integral symmetry is turned on.
 ------------------------------------------------------------------------------
 Polarizable Continuum Model (PCM)
 =================================
 Model                : PCM (using non-symmetric T matrix).
 Atomic radii         : UFF (Universal Force Field).
 Polarization charges : Total charges.
 Charge compensation  : None.
 Solution method      : On-the-fly selection.
 Cavity type          : Scaled VdW (van der Waals Surface) (Alpha=1.100).
 Cavity algorithm     : GePol (No added spheres)
                        Default sphere list used, NSphG=    7.
                        Lebedev-Laikov grids with approx.  5.0 points / Ang**2.
                        Smoothing algorithm: Karplus/York (Gamma=1.0000).
                        Polarization charges: spherical gaussians, with
                                              point-specific exponents (IZeta= 3).
                        Self-potential: point-specific (ISelfS= 7).
                        Self-field    : sphere-specific E.n sum rule (ISelfD= 2).
 1st derivatives      : Analytical E(r).r(x)/FMM algorithm (CHGder, D1EAlg=3).
                        Cavity 1st derivative terms included.
 Solvent              : Water, Eps=  78.355300 Eps(inf)=   1.777849
 ------------------------------------------------------------------------------
 Spheres list:
 ISph  on   Nord     Re0    Alpha      Xe            Ye            Ze
    1  Pt      1    1.3770  1.100     -0.002872      0.008830      0.356194
    2  Br      2    2.0945  1.100      1.634317      1.279158     -1.136862
    3  Cl      3    1.9735  1.100     -0.322246      1.995820      1.706249
    4  Cl      4    1.9735  1.100      1.835736     -0.659880      1.786009
    5  Cl      5    1.9735  1.100     -1.549573     -1.203462      1.774246
    6  Br      6    2.0945  1.100     -1.943224      0.721335     -1.145600
    7  Br      7    2.0945  1.100      0.332835     -2.084520     -1.069358
 ------------------------------------------------------------------------------
 One-electron integrals computed using PRISM.
   1 Symmetry operations used in ECPInt.
 ECPInt:  NShTT=    2346 NPrTT=   13080 LenC2=    2090 LenP2D=    7949.
 LDataN:  DoStor=T MaxTD1= 6 Len=  172
 NBasis=   172 RedAO= T EigKep=  6.61D-03  NBF=   172
 NBsUse=   172 1.00D-06 EigRej= -1.00D+00 NBFU=   172
 Defaulting to unpruned grid for atomic number  78.
 Initial guess from the checkpoint file:  "/home/scr/diego/Gau-4018.chk"
 B after Tr=     0.000000    0.000000    0.000000
         Rot=    0.999567   -0.007020   -0.004580    0.028210 Ang=  -3.37 deg.
 Keep R1 ints in memory in canonical form, NReq=116274255.
 Requested convergence on RMS density matrix=1.00D-08 within 128 cycles.
 Requested convergence on MAX density matrix=1.00D-06.
 Requested convergence on             energy=1.00D-06.
 No special actions if energy rises.
 Defaulting to unpruned grid for atomic number  78.
 Defaulting to unpruned grid for atomic number  78.
 Defaulting to unpruned grid for atomic number  78.
 Defaulting to unpruned grid for atomic number  78.
 Defaulting to unpruned grid for atomic number  78.
 Defaulting to unpruned grid for atomic number  78.
 Defaulting to unpruned grid for atomic number  78.
 Defaulting to unpruned grid for atomic number  78.
 Inv3:  Mode=1 IEnd=     6438675.
 Iteration    1 A*A^-1 deviation from unit magnitude is 5.66D-15 for    436.
 Iteration    1 A*A^-1 deviation from orthogonality  is 4.37D-15 for   1179     80.
 Iteration    1 A^-1*A deviation from unit magnitude is 5.77D-15 for    326.
 Iteration    1 A^-1*A deviation from orthogonality  is 2.43D-13 for   1288   1179.
 Error on total polarization charges =  0.01812
 SCF Done:  E(RB3LYP) =  -9221.47933949     A.U. after    9 cycles
            NFock=  9  Conv=0.93D-08     -V/T= 2.0103
   1 Symmetry operations used in ECPInt.
 ECPInt:  NShTT=    2346 NPrTT=   13080 LenC2=    2090 LenP2D=    7949.
 LDataN:  DoStor=T MaxTD1= 7 Len=  274
 D1PCM: PCM CHGder 1st derivatives, ID1Alg=3 FixD1E=F DoIter=F DoCFld=F I1PDM=0.
 Calling FoFJK, ICntrl=      2127 FMM=F ISym2X=0 I1Cent= 0 IOpClX= 0 NMat=1 NMatS=1 NMatT=0.
 Defaulting to unpruned grid for atomic number  78.
 Defaulting to unpruned grid for atomic number  78.
 Defaulting to unpruned grid for atomic number  78.
 Defaulting to unpruned grid for atomic number  78.
 Defaulting to unpruned grid for atomic number  78.
 Defaulting to unpruned grid for atomic number  78.
 Defaulting to unpruned grid for atomic number  78.
 Defaulting to unpruned grid for atomic number  78.
 ***** Axes restored to original set *****
 -------------------------------------------------------------------
 Center     Atomic                   Forces (Hartrees/Bohr)
 Number     Number              X              Y              Z
 -------------------------------------------------------------------
      1       78           0.000291858   -0.000195068   -0.000239726
      2       35          -0.000260155    0.000264337    0.000438799
      3       17           0.000072179   -0.000187859   -0.000059289
      4       17           0.000212368    0.000131587   -0.000325659
      5       17           0.000004388   -0.000114200    0.000128966
      6       35          -0.000069747    0.000048072    0.000172684
      7       35          -0.000250891    0.000053131   -0.000115776
 -------------------------------------------------------------------
 Cartesian Forces:  Max     0.000438799 RMS     0.000203440

 GradGradGradGradGradGradGradGradGradGradGradGradGradGradGradGradGradGrad
 Berny optimization.
 Using GEDIIS/GDIIS optimizer.
 FormGI is forming the generalized inverse of G from B-inverse, IUseBI=4.
 Internal  Forces:  Max     0.000438098 RMS     0.000210748
 Search for a local minimum.
 Step number   4 out of a maximum of   42
 All quantities printed in internal units (Hartrees-Bohrs-Radians)
 Mixed Optimization -- En-DIIS/RFO-DIIS
 Swapping is turned off.
 Update second derivatives using D2CorX and points    2    3    4
 DE=  2.92D-05 DEPred=-3.30D-05 R=-8.85D-01
 Trust test=-8.85D-01 RLast= 2.52D-02 DXMaxT set to 4.24D-01
 ITU= -1  1  1  0
     Eigenvalues ---    0.06504   0.08431   0.08836   0.09109   0.09869
     Eigenvalues ---    0.12157   0.12662   0.16102   0.18707   0.19500
     Eigenvalues ---    0.19811   0.20317   0.21946   0.21980   0.23504
 En-DIIS/RFO-DIIS IScMMF=        0 using points:     4    3
 RFO step:  Lambda=-3.54135205D-06.
 DidBck=F Rises=F RFO-DIIS coefs:    0.90812    0.09188
 Iteration  1 RMS(Cart)=  0.00273292 RMS(Int)=  0.00000296
 Iteration  2 RMS(Cart)=  0.00000264 RMS(Int)=  0.00000154
 Iteration  3 RMS(Cart)=  0.00000000 RMS(Int)=  0.00000154
 Variable       Old X    -DE/DX   Delta X   Delta X   Delta X     New X
                                 (Linear)    (Quad)   (Total)
    R1        4.82652  -0.00044  -0.00052  -0.00098  -0.00150   4.82501
    R2        4.57953  -0.00007  -0.00075   0.00126   0.00052   4.58004
    R3        4.57923   0.00013  -0.00080   0.00223   0.00143   4.58066
    R4        4.57954   0.00013  -0.00061   0.00177   0.00116   4.58070
    R5        4.82825  -0.00005  -0.00041   0.00057   0.00016   4.82841
    R6        4.82788  -0.00025  -0.00055  -0.00005  -0.00060   4.82728
    A1        1.57313  -0.00019   0.00036  -0.00305  -0.00268   1.57045
    A2        1.56662  -0.00038  -0.00064  -0.00165  -0.00229   1.56432
    A3        1.57529   0.00027   0.00054   0.00069   0.00123   1.57652
    A4        1.56791   0.00008  -0.00015   0.00115   0.00100   1.56892
    A5        1.56834   0.00031  -0.00027   0.00281   0.00254   1.57089
    A6        1.57086  -0.00001   0.00005  -0.00006  -0.00001   1.57086
    A7        1.56952  -0.00022  -0.00022  -0.00055  -0.00077   1.56874
    A8        1.57174   0.00025   0.00008   0.00157   0.00166   1.57340
    A9        1.57422  -0.00023   0.00015  -0.00147  -0.00133   1.57289
   A10        1.56954  -0.00014   0.00002  -0.00062  -0.00060   1.56894
   A11        1.57128   0.00012  -0.00027   0.00196   0.00169   1.57297
   A12        1.57111   0.00015   0.00035  -0.00079  -0.00044   1.57066
   A13        3.14399  -0.00020   0.00042  -0.00311  -0.00269   3.14130
   A14        3.14105  -0.00011   0.00022  -0.00190  -0.00168   3.13937
   A15        3.14191  -0.00011  -0.00010  -0.00097  -0.00107   3.14084
   A16        3.14483   0.00013   0.00056   0.00007   0.00063   3.14546
   A17        3.14257   0.00007  -0.00012   0.00135   0.00123   3.14379
   A18        3.14533  -0.00008   0.00049  -0.00226  -0.00177   3.14356
    D1        1.57314  -0.00019   0.00037  -0.00306  -0.00269   1.57045
    D2       -1.57313   0.00019  -0.00036   0.00305   0.00269  -1.57044
    D3        1.56661  -0.00038  -0.00064  -0.00165  -0.00229   1.56432
    D4       -1.57529  -0.00027  -0.00054  -0.00069  -0.00123  -1.57652
    D5       -1.56834  -0.00031   0.00027  -0.00281  -0.00254  -1.57089
    D6       -1.57086   0.00001  -0.00006   0.00006   0.00000  -1.57086
    D7        1.57174   0.00025   0.00008   0.00158   0.00166   1.57340
    D8        1.56954  -0.00014   0.00002  -0.00062  -0.00060   1.56894
         Item               Value     Threshold  Converged?
 Maximum Force            0.000438     0.000450     YES
 RMS     Force            0.000211     0.000300     YES
 Maximum Displacement     0.007319     0.001800     NO 
 RMS     Displacement     0.002733     0.001200     NO 
 Predicted change in Energy=-4.708654D-06
 GradGradGradGradGradGradGradGradGradGradGradGradGradGradGradGradGradGrad

                          Input orientation:                          
 ---------------------------------------------------------------------
 Center     Atomic      Atomic             Coordinates (Angstroms)
 Number     Number       Type             X           Y           Z
 ---------------------------------------------------------------------
      1         78           0       -0.316018    0.335012   -0.001932
      2         35           0       -0.315191    0.345118   -2.555200
      3         17           0       -2.739670    0.332237   -0.003572
      4         17           0       -0.318567    2.758983   -0.008029
      5         17           0       -0.317512    0.334801    2.422070
      6         35           0       -0.318345   -2.220066    0.002577
      7         35           0        2.238462    0.332336   -0.005915
 ---------------------------------------------------------------------
                    Distance matrix (angstroms):
                    1          2          3          4          5
     1  Pt   0.000000
     2  Br   2.553288   0.000000
     3  Cl   2.423655   3.519811   0.000000
     4  Cl   2.423981   3.509251   3.427953   0.000000
     5  Cl   2.424003   4.977281   3.427914   3.432498   0.000000
     6  Br   2.555083   3.622485   3.518111   4.979061   3.518706
     7  Br   2.554485   3.608347   4.978133   3.525198   3.525354
                    6          7
     6  Br   0.000000
     7  Br   3.612768   0.000000
 Stoichiometry    Br3Cl3Pt(2-)
 Framework group  C1[X(Br3Cl3Pt)]
 Deg. of freedom    15
 Full point group                 C1      NOp   1
 Largest Abelian subgroup         C1      NOp   1
 Largest concise Abelian subgroup C1      NOp   1
                         Standard orientation:                         
 ---------------------------------------------------------------------
 Center     Atomic      Atomic             Coordinates (Angstroms)
 Number     Number       Type             X           Y           Z
 ---------------------------------------------------------------------
      1         78           0       -0.001693    0.010135    0.356043
      2         35           0        1.658443    1.239021   -1.144980
      3         17           0       -0.273081    2.012731    1.693974
      4         17           0        1.829964   -0.692955    1.779553
      5         17           0       -1.570783   -1.158690    1.786984
      6         35           0       -1.931737    0.756318   -1.142819
      7         35           0        0.283818   -2.096168   -1.060773
 ---------------------------------------------------------------------
 Rotational constants (GHZ):      0.3713143      0.3698410      0.3503787
 Basis read from rwf:  (5D, 7F)
 Pseudo-potential data read from rwf file.
 There are   186 symmetry adapted cartesian basis functions of A   symmetry.
 There are   172 symmetry adapted basis functions of A   symmetry.
   172 basis functions,   394 primitive gaussians,   186 cartesian basis functions
    88 alpha electrons       88 beta electrons
       nuclear repulsion energy      1990.3154122835 Hartrees.
 NAtoms=    7 NActive=    7 NUniq=    7 SFac= 1.00D+00 NAtFMM=   60 NAOKFM=F Big=F
 Integral buffers will be    131072 words long.
 Raffenetti 2 integral format.
 Two-electron integral symmetry is turned on.
 ------------------------------------------------------------------------------
 Polarizable Continuum Model (PCM)
 =================================
 Model                : PCM (using non-symmetric T matrix).
 Atomic radii         : UFF (Universal Force Field).
 Polarization charges : Total charges.
 Charge compensation  : None.
 Solution method      : On-the-fly selection.
[...]
 Atom     6 has atomic number 35 and mass  78.91834
 Atom     7 has atomic number 35 and mass  78.91834
 Molecular mass:   536.62637 amu.
 Principal axes and moments of inertia in atomic units:
                           1         2         3
     Eigenvalues --  4857.947704873.352555156.41501
           X            0.99999  -0.00329  -0.00021
           Y            0.00329   0.99999   0.00236
           Z            0.00021  -0.00236   1.00000
 This molecule is an asymmetric top.
 Rotational symmetry number  1.
 Warning -- assumption of classical behavior for rotation
           may cause significant error
 Rotational temperatures (Kelvin)      0.01783     0.01777     0.01680
 Rotational constants (GHZ):           0.37150     0.37033     0.35000
 Zero-point vibrational energy      14466.7 (Joules/Mol)
                                    3.45763 (Kcal/Mol)
 Warning -- explicit consideration of  15 degrees of freedom as
           vibrations may cause significant error
 Vibrational temperatures:    107.94   114.90   128.82   137.40   158.75
          (Kelvin)            163.14   184.19   185.16   194.71   280.76
                              281.97   293.54   411.16   413.96   423.49
 
 Zero-point correction=                           0.005510 (Hartree/Particle)
 Thermal correction to Energy=                    0.017846
 Thermal correction to Enthalpy=                  0.018791
 Thermal correction to Gibbs Free Energy=        -0.037837
 Sum of electronic and zero-point Energies=          -9221.473878
 Sum of electronic and thermal Energies=             -9221.461542
 Sum of electronic and thermal Enthalpies=           -9221.460598
 Sum of electronic and thermal Free Energies=        -9221.517225
 
                     E (Thermal)             CV                S
                      KCal/Mol        Cal/Mol-Kelvin    Cal/Mol-Kelvin
 Total                   11.199             34.053            119.183
 Electronic               0.000              0.000              0.000
 Translational            0.889              2.981             44.726
 Rotational               0.889              2.981             33.168
 Vibrational              9.421             28.092             41.290
 Vibration     1          0.599              1.966              4.017
 Vibration     2          0.600              1.963              3.894
 Vibration     3          0.602              1.957              3.670
 Vibration     4          0.603              1.952              3.544
 Vibration     5          0.606              1.941              3.263
 Vibration     6          0.607              1.938              3.210
 Vibration     7          0.611              1.925              2.976
 Vibration     8          0.611              1.925              2.965
 Vibration     9          0.613              1.918              2.869
 Vibration    10          0.636              1.847              2.178
 Vibration    11          0.636              1.845              2.171
 Vibration    12          0.640              1.834              2.097
 Vibration    13          0.684              1.700              1.499
 Vibration    14          0.685              1.697              1.487
 Vibration    15          0.689              1.684              1.449
                       Q            Log10(Q)             Ln(Q)
 Total Bot       0.253422D+18         17.403845         40.073833
 Total V=0       0.867565D+20         19.938302         45.909637
 Vib (Bot)       0.131136D+03          2.117721          4.876232
 Vib (Bot)    1  0.274714D+01          0.438880          1.010560
 Vib (Bot)    2  0.257882D+01          0.411420          0.947330
 Vib (Bot)    3  0.229665D+01          0.361094          0.831450
 Vib (Bot)    4  0.215089D+01          0.332618          0.765881
 Vib (Bot)    5  0.185612D+01          0.268606          0.618488
 Vib (Bot)    6  0.180502D+01          0.256483          0.590574
 Vib (Bot)    7  0.159322D+01          0.202276          0.465758
 Vib (Bot)    8  0.158465D+01          0.199932          0.460361
 Vib (Bot)    9  0.150440D+01          0.177364          0.408396
 Vib (Bot)   10  0.102368D+01          0.010164          0.023404
 Vib (Bot)   11  0.101900D+01          0.008172          0.018818
 Vib (Bot)   12  0.975802D+00         -0.010638         -0.024496
 Vib (Bot)   13  0.670711D+00         -0.173465         -0.399417
 Vib (Bot)   14  0.665488D+00         -0.176860         -0.407234
 Vib (Bot)   15  0.648145D+00         -0.188328         -0.433640
 Vib (V=0)       0.448929D+05          4.652178         10.712035
 Vib (V=0)    1  0.329227D+01          0.517495          1.191577
 Vib (V=0)    2  0.312684D+01          0.495106          1.140023
 Vib (V=0)    3  0.285044D+01          0.454913          1.047475
 Vib (V=0)    4  0.270824D+01          0.432687          0.996299
 Vib (V=0)    5  0.242228D+01          0.384225          0.884711
 Vib (V=0)    6  0.237300D+01          0.375297          0.864153
 Vib (V=0)    7  0.216984D+01          0.336427          0.774652
 Vib (V=0)    8  0.216166D+01          0.334787          0.770875
 Vib (V=0)    9  0.208532D+01          0.319172          0.734920
 Vib (V=0)   10  0.163926D+01          0.214649          0.494247
 Vib (V=0)   11  0.163506D+01          0.213533          0.491677
 Vib (V=0)   12  0.159644D+01          0.203154          0.467778
 Vib (V=0)   13  0.133657D+01          0.125992          0.290108
 Vib (V=0)   14  0.133239D+01          0.124632          0.286975
 Vib (V=0)   15  0.131859D+01          0.120110          0.276564
 Electronic      0.100000D+01          0.000000          0.000000
 Translational   0.488611D+09          8.688963         20.007077
 Rotational      0.395513D+07          6.597161         15.190524
 ***** Axes restored to original set *****
 -------------------------------------------------------------------
 Center     Atomic                   Forces (Hartrees/Bohr)
 Number     Number              X              Y              Z
 -------------------------------------------------------------------
      1       78          -0.000015597   -0.000012536    0.000118973
      2       35          -0.000057873   -0.000105415   -0.000209580
      3       17          -0.000043035    0.000061315    0.000160206
      4       17           0.000012132    0.000096574    0.000072852
      5       17           0.000099479    0.000104529   -0.000044794
      6       35          -0.000003390   -0.000063020    0.000103159
      7       35           0.000008285   -0.000081446   -0.000200815
 -------------------------------------------------------------------
 Cartesian Forces:  Max     0.000209580 RMS     0.000098436
 FormGI is forming the generalized inverse of G from B-inverse, IUseBI=4.

 GradGradGradGradGradGradGradGradGradGradGradGradGradGradGradGradGradGrad
 Berny optimization.
 Internal  Forces:  Max     0.000209818 RMS     0.000080912
 Search for a local minimum.
 Step number   1 out of a maximum of    2
 All quantities printed in internal units (Hartrees-Bohrs-Radians)
 Second derivative matrix not updated -- analytic derivatives used.
 ITU=  0
     Eigenvalues ---    0.04175   0.05302   0.05981   0.06055   0.06371
     Eigenvalues ---    0.07004   0.07372   0.07985   0.08443   0.09686
     Eigenvalues ---    0.09730   0.09878   0.10647   0.10707   0.11489
 Angle between quadratic step and forces=  15.99 degrees.
 Linear search not attempted -- first point.
 Iteration  1 RMS(Cart)=  0.00184010 RMS(Int)=  0.00000119
 Iteration  2 RMS(Cart)=  0.00000117 RMS(Int)=  0.00000049
 Iteration  3 RMS(Cart)=  0.00000000 RMS(Int)=  0.00000049
 Variable       Old X    -DE/DX   Delta X   Delta X   Delta X     New X
                                 (Linear)    (Quad)   (Total)
    R1        4.82318   0.00021   0.00000   0.00234   0.00234   4.82552
    R2        4.57975   0.00004   0.00000   0.00024   0.00024   4.57999
    R3        4.58281   0.00010   0.00000   0.00052   0.00052   4.58333
    R4        4.58115  -0.00005   0.00000  -0.00089  -0.00089   4.58025
    R5        4.82747   0.00006   0.00000   0.00067   0.00067   4.82814
    R6        4.82508   0.00001   0.00000   0.00001   0.00001   4.82509
    A1        1.56699   0.00006   0.00000   0.00110   0.00110   1.56808
    A2        1.56560   0.00012   0.00000   0.00168   0.00168   1.56728
    A3        1.57687   0.00001   0.00000   0.00028   0.00028   1.57715
    A4        1.57170  -0.00014   0.00000  -0.00165  -0.00165   1.57005
    A5        1.57327  -0.00004   0.00000  -0.00049  -0.00049   1.57278
    A6        1.57124  -0.00003   0.00000  -0.00055  -0.00055   1.57069
    A7        1.56871   0.00006   0.00000   0.00054   0.00054   1.56924
    A8        1.57437  -0.00012   0.00000  -0.00200  -0.00200   1.57237
    A9        1.56888   0.00007   0.00000   0.00078   0.00078   1.56966
   A10        1.56635  -0.00002   0.00000   0.00004   0.00004   1.56639
   A11        1.57326   0.00011   0.00000   0.00111   0.00111   1.57436
   A12        1.57233  -0.00009   0.00000  -0.00082  -0.00082   1.57151
   A13        3.13823   0.00003   0.00000   0.00054   0.00054   3.13877
   A14        3.13869  -0.00008   0.00000  -0.00055  -0.00055   3.13813
   A15        3.14247   0.00013   0.00000   0.00196   0.00196   3.14443
   A16        3.14323   0.00000   0.00000   0.00032   0.00032   3.14354
   A17        3.14217   0.00003   0.00000   0.00029   0.00029   3.14246
   A18        3.14121  -0.00002   0.00000  -0.00004  -0.00004   3.14117
    D1        1.56697   0.00006   0.00000   0.00110   0.00110   1.56808
    D2       -1.56697  -0.00006   0.00000  -0.00110  -0.00110  -1.56807
    D3        1.56560   0.00012   0.00000   0.00169   0.00169   1.56728
    D4       -1.57687  -0.00001   0.00000  -0.00028  -0.00028  -1.57715
    D5       -1.57327   0.00004   0.00000   0.00049   0.00049  -1.57278
    D6       -1.57125   0.00003   0.00000   0.00056   0.00056  -1.57070
    D7        1.57436  -0.00012   0.00000  -0.00200  -0.00200   1.57236
    D8        1.56635  -0.00002   0.00000   0.00004   0.00004   1.56639
         Item               Value     Threshold  Converged?
 Maximum Force            0.000210     0.000450     YES
 RMS     Force            0.000081     0.000300     YES
 Maximum Displacement     0.006116     0.001800     NO 
 RMS     Displacement     0.001840     0.001200     NO 
 Predicted change in Energy=-1.316529D-06
 GradGradGradGradGradGradGradGradGradGradGradGradGradGradGradGradGradGrad

 1\1\GINC-NEQC17\Freq\RB3LYP\Gen\Br3Cl3Pt1(2-)\DIEGO\18-Aug-2021\0\\#N 
 Geom=AllCheck Guess=TCheck SCRF=Check GenChk RB3LYP/ChkBas Freq\\Estru
 tura 21\\-2,1\Pt,-0.3155838649,0.3349698159,-0.0024644532\Br,-0.320584
 4082,0.3431751675,-2.5547610192\Cl,-2.7390777884,0.3318508827,-0.00695
 78664\Cl,-0.3126946242,2.7600816226,-0.0072812187\Cl,-0.3189895076,0.3
 311322358,2.4217700378\Br,-0.3176464916,-2.2196048836,0.0048472812\Br,
 2.237734455,0.3368161792,-0.0051527614\\Version=EM64L-G09RevD.01\State
 =1-A\HF=-9221.4793883\RMSD=1.653e-09\RMSF=9.844e-05\ZeroPoint=0.005510
 1\Thermal=0.0178465\Dipole=0.8057325,-0.8073492,-0.8108601\DipoleDeriv
 =1.3778069,0.0031766,-0.0007711,0.0027485,1.3810034,-0.0115586,0.00001
 3,-0.011068,1.3777832,-0.1218956,0.0070248,-0.0270322,0.0051417,-0.099
 6516,0.0311105,-0.0098741,0.004017,-1.3055409,-1.5271708,0.0009887,0.0
 134441,0.0197914,-0.1616226,-0.0045307,0.0224965,-0.0031044,-0.1537538
 ,-0.1597726,0.0141885,-0.0011437,-0.0095513,-1.5498014,-0.0019157,-0.0
 041925,-0.0113067,-0.1610802,-0.1558607,0.0034979,0.0269201,0.0009933,
 -0.1551787,-0.0132846,0.0032393,-0.006122,-1.5396066,-0.1068426,-0.022
 4564,-0.0024897,-0.0000008,-1.3184504,0.0074756,-0.0053262,0.0351717,-
 0.1061631,-1.3062645,-0.0064202,-0.0089276,-0.0191228,-0.0962988,-0.00
 72965,-0.0063559,-0.0075875,-0.1116387\Polar=209.1453527,0.9119597,209
 .4919718,0.721229,-1.4112874,209.1148911\PG=C01 [X(Br3Cl3Pt1)]\NImag=0
 \\0.21322066,-0.00010034,0.21027135,0.00089974,0.00067661,0.21237608,-
 0.01509341,-0.00011344,-0.00007369,0.01287850,-0.00005543,-0.01539147,
 0.00020095,-0.00194060,0.01314731,-0.00030408,0.00057207,-0.06746469,0
 .00070734,-0.00007370,0.08630306,-0.08094577,-0.00015690,-0.00034784,-
 0.00102372,0.00143942,0.00313473,0.09442748,-0.00002125,-0.01695055,0.
 00032008,0.00052883,0.00101825,-0.00033046,-0.00072051,0.01407035,-0.0
 0002151,0.00019698,-0.01699641,0.00406101,0.00014913,-0.00049240,0.000
 63111,0.00093636,0.01314880,-0.01708449,0.00075843,-0.00008117,0.00122
 462,0.00005545,-0.00020545,-0.00027725,-0.00477186,0.00013679,0.013008
 98,0.00067998,-0.07902332,-0.00060103,0.00096656,-0.00194851,-0.003257
 72,-0.00278029,-0.00066384,-0.00021649,-0.00121153,0.09409162,-0.00008
 269,-0.00104237,-0.01652972,0.00133748,-0.00587361,-0.00298435,-0.0011
 9519,0.00015515,-0.00012691,0.00014755,0.00245587,0.01466556,-0.017256
 63,0.00000933,-0.00017260,0.00344372,-0.00000512,0.00012818,-0.0005795
 7,-0.00013259,-0.00514066,0.00168121,-0.00004725,0.00010369,0.01492613
 ,0.00013462,-0.01723881,-0.00116276,-0.00000324,0.00345412,-0.00001058
 ,-0.00008607,0.00082553,-0.00064102,0.00012164,0.00092621,0.00430205,-
 0.00023760,0.01347179,-0.00025970,-0.00058206,-0.08073863,-0.00014084,
 0.00020044,-0.01149093,-0.00223513,-0.00059508,0.00030005,0.00007558,0
 .00158446,0.00081435,0.00035150,0.00298867,0.09446950,-0.01548419,-0.0
 0008125,0.00008396,0.00053263,0.00026824,-0.00066622,-0.00019539,0.005
 00601,0.00019315,0.00343893,-0.00013209,-0.00000393,0.00000715,-0.0002
 7129,-0.00003492,0.01241051,-0.00046059,-0.06620287,0.00045325,0.00031
 581,-0.00057927,0.00254984,0.00240702,-0.00174765,-0.00042935,0.000066
 32,-0.01155867,-0.00001796,-0.00025491,-0.00152018,-0.00317411,-0.0002
 9722,0.08253160,0.00012083,0.00002306,-0.01542107,-0.00054753,0.005008
 95,-0.00132264,0.00003984,-0.00048928,0.00071921,-0.00000683,0.0002292
 0,0.00343348,0.00002983,-0.00554815,-0.00270760,-0.00001840,0.00085926
 ,0.01430516,-0.06735617,-0.00031583,-0.00030839,-0.00196233,0.00023803
 ,-0.00279452,-0.01140577,0.00011138,0.00014012,-0.00199199,0.00252462,
 -0.00030691,-0.00222201,0.00034194,0.00224351,-0.00070963,-0.00177643,
 0.00038227,0.08564790,-0.00017700,-0.01546433,0.00011290,0.00024608,0.
 00029959,0.00055055,-0.00010266,0.00344791,0.00000439,0.00498156,-0.00
 182349,0.00002087,0.00066815,0.00008134,-0.00042233,-0.00449241,-0.000
 92297,-0.00008304,-0.00112371,0.01438195,-0.00035259,0.00015571,-0.015
 22557,-0.00534377,0.00038785,-0.00254805,-0.00002752,0.00000323,0.0034
 4766,-0.00006646,-0.00019429,0.00072760,0.00470006,0.00007180,-0.00064
 674,0.00044636,-0.00024095,0.00099347,0.00064393,-0.00018335,0.0132516
 3\\0.00001560,0.00001254,-0.00011897,0.00005787,0.00010542,0.00020958,
 0.00004303,-0.00006131,-0.00016021,-0.00001213,-0.00009657,-0.00007285
 ,-0.00009948,-0.00010453,0.00004479,0.00000339,0.00006302,-0.00010316,
 -0.00000828,0.00008145,0.00020082\\\@


                                                                                    A
                                                                                  AA
                                                                                 AAA
                                                                                AAAA
                                                                               AAAAA
                                                                              AAAAAA   KKKKKKKK
                                                                             AAAAAAA   KKKKKKKK
                                                                            AAAAAAAA   KKKKKKKK
                                       ZZZZZZZZZZZZZZZZZZZZ                AAAA  AAA   KKKKKKKK
                                       ZZZZZZZZZZZZZZZZZZZ                AAAA   AAA   KKKKKKKK          K
                                       ZZZZZZZZZZZZZZZZZZ                AAAA    AAA   KKKKKKKK         KKK
                                       ZZZZZZZZZZZZZZZZZ                AAAA     AAA   KKKKKKKK        KKKKK
                                       ZZZZZZZZZZZZZZZZ                AAAA      AAA   KKKKKKKK       KKKKKKK
                                                ZZZZZZ                AAAA       AAA   KKKKKKKK      KKKKKKK
                                               ZZZZZZ                AAAA        AAA   KKKKKKKK     KKKKKKK
                                              ZZZZZZ                AAAA         AAA   KKKKKKKK    KKKKKKK
                                             ZZZZZZ                AAAA          AAA   KKKKKKKK   KKKKKKK
                                            ZZZZZZ                AAAAAAAAAAAAAAAAAA   KKKKKKKK  KKKKKKK
                                           ZZZZZZ                AAAAAAAAAAAAAAAAAAA   KKKKKKKK KKKKKKK
                                          ZZZZZZ                AAAAAAAAAAAAAAAAAAAA   KKKKKKKKKKKKKKK
                                         ZZZZZZ                AAAAAAAAAAAAAAAAAAAAA   KKKKKKKKKKKKKK
                                        ZZZZZZ                AAAAAA        AAAAAAAA   KKKKKKKKKKKKK
                                       ZZZZZZ                AAAAAA         AAAAAAAA   KKKKKKKKKKKK
                                      ZZZZZZ                AAAAAA          AAAAAAAA   KKKKKKKKKKK
                                     ZZZZZZ                AAAAAA           AAAAAAAA   KKKKKKKKKKKK
                                    ZZZZZZ                AAAAAA            AAAAAAAA   KKKKKKKKKKKKK
                                   ZZZZZZ                AAAAAA             AAAAAAAA   KKKKKKKKKKKKKK
                                  ZZZZZZ                AAAAAA              AAAAAAAA   KKKKKKKKKKKKKKK
                                 ZZZZZZ                AAAAAA               AAAAAAAA   KKKKK KKKKKKKKKK
                                ZZZZZZ                AAAAAA                AAAAAAAA   KKKKK  KKKKKKKKKK
                               ZZZZZZ                AAAAAA                            KKKKK   KKKKKKKKKK
                              ZZZZZZ                AAAAAA                             KKKKK    KKKKKKKKKK
                             ZZZZZZ                                                    KKKKK     KKKKKKKKKK
                            ZZZZZZ                                                     KKKKK      KKKKKKKKKK
                           ZZZZZZ                                                      KKKKK       KKKKKKKKKK
                          ZZZZZZ                                                       KKKKK        KKKKKKKKKK
                         ZZZZZZZZZZZZZZZZZZZZZZZZZZZZZZZZZZZZZZZZ                      KKKKK         KKKKKKKKKK
                        ZZZZZZZZZZZZZZZZZZZZZZZZZZZZZZZZZZZZZZZZZ                      KKKKK          KKKKKKKKKK
                       ZZZZZZZZZZZZZZZZZZZZZZZZZZZZZZZZZZZZZZZZZZ                      KKKKK           KKKKKKKKKK
                       ZZZZZZZZZZZZZZZZZZZZZZZZZZZZZZZZZZZZZZZZZZ                      KKKKK            KKKKKKKKKK
                       ZZZZZZZZZZZZZZZZZZZZZZZZZZZZZZZZZZZZZZZZZZ                      KKKKK             KKKKKKKKKK
                       ZZZZZZZZZZZZZZZZZZZZZZZZZZZZZZZZZZZZZZZZZZ                      KKKKK              KKKKKKKKKK
                       ZZZZZZZZZZZZZZZZZZZZZZZZZZZZZZZZZZZZZZZZZZ                      KKKKK               KKKKKKKKKK
                       ZZZZZZZZZZZZZZZZZZZZZZZZZZZZZZZZZZZZZZZZZZ                      KKKKK                KKKKKKKKKK
                       ZZZZZZZZZZZZZZZZZZZZZZZZZZZZZZZZZZZZZZZZZZ                      KKKKK
                                                                                       KKKKK
                                                                                          (J.P.)
 Job cpu time:       0 days  0 hours 10 minutes 14.1 seconds.
 File lengths (MBytes):  RWF=     82 Int=      0 D2E=      0 Chk=      6 Scr=      1
 Normal termination of Gaussian 09 at Wed Aug 18 03:25:14 2021.
