 Entering Gaussian System, Link 0=g09
 Input=estrutura22_D2O.com
 Output=estrutura22_D2O.log
 Initial command:
 /home/scr/programs/g09/l1.exe "/home/scr/diego/Gau-4987.inp" -scrdir="/home/scr/diego/"
 Entering Link 1 = /home/scr/programs/g09/l1.exe PID=      4989.
  
 Copyright (c) 1988,1990,1992,1993,1995,1998,2003,2009,2013,
            Gaussian, Inc.  All Rights Reserved.
  
 This is part of the Gaussian(R) 09 program.  It is based on
 the Gaussian(R) 03 system (copyright 2003, Gaussian, Inc.),
 the Gaussian(R) 98 system (copyright 1998, Gaussian, Inc.),
 the Gaussian(R) 94 system (copyright 1995, Gaussian, Inc.),
 the Gaussian 92(TM) system (copyright 1992, Gaussian, Inc.),
 the Gaussian 90(TM) system (copyright 1990, Gaussian, Inc.),
 the Gaussian 88(TM) system (copyright 1988, Gaussian, Inc.),
 the Gaussian 86(TM) system (copyright 1986, Carnegie Mellon
 University), and the Gaussian 82(TM) system (copyright 1983,
 Carnegie Mellon University). Gaussian is a federally registered
 trademark of Gaussian, Inc.
  
 This software contains proprietary and confidential information,
 including trade secrets, belonging to Gaussian, Inc.
  
 This software is provided under written license and may be
 used, copied, transmitted, or stored only in accord with that
 written license.
  
 The following legend is applicable only to US Government
 contracts under FAR:
  
                    RESTRICTED RIGHTS LEGEND
  
 Use, reproduction and disclosure by the US Government is
 subject to restrictions as set forth in subparagraphs (a)
 and (c) of the Commercial Computer Software - Restricted
 Rights clause in FAR 52.227-19.
  
 Gaussian, Inc.
 340 Quinnipiac St., Bldg. 40, Wallingford CT 06492
  
  
 ---------------------------------------------------------------
 Warning -- This program may not be used in any manner that
 competes with the business of Gaussian, Inc. or will provide
 assistance to any competitor of Gaussian, Inc.  The licensee
 of this program is prohibited from giving any competitor of
 Gaussian, Inc. access to this program.  By using this program,
 the user acknowledges that Gaussian, Inc. is engaged in the
 business of creating and licensing software in the field of
 computational chemistry and represents and warrants to the
 licensee that it is not a competitor of Gaussian, Inc. and that
 it will not use this program in any manner prohibited above.
 ---------------------------------------------------------------
  

 Cite this work as:
 Gaussian 09, Revision D.01,
 M. J. Frisch, G. W. Trucks, H. B. Schlegel, G. E. Scuseria, 
 M. A. Robb, J. R. Cheeseman, G. Scalmani, V. Barone, B. Mennucci, 
 G. A. Petersson, H. Nakatsuji, M. Caricato, X. Li, H. P. Hratchian, 
 A. F. Izmaylov, J. Bloino, G. Zheng, J. L. Sonnenberg, M. Hada, 
 M. Ehara, K. Toyota, R. Fukuda, J. Hasegawa, M. Ishida, T. Nakajima, 
 Y. Honda, O. Kitao, H. Nakai, T. Vreven, J. A. Montgomery, Jr., 
 J. E. Peralta, F. Ogliaro, M. Bearpark, J. J. Heyd, E. Brothers, 
 K. N. Kudin, V. N. Staroverov, T. Keith, R. Kobayashi, J. Normand, 
 K. Raghavachari, A. Rendell, J. C. Burant, S. S. Iyengar, J. Tomasi, 
 M. Cossi, N. Rega, J. M. Millam, M. Klene, J. E. Knox, J. B. Cross, 
 V. Bakken, C. Adamo, J. Jaramillo, R. Gomperts, R. E. Stratmann, 
 O. Yazyev, A. J. Austin, R. Cammi, C. Pomelli, J. W. Ochterski, 
 R. L. Martin, K. Morokuma, V. G. Zakrzewski, G. A. Voth, 
 P. Salvador, J. J. Dannenberg, S. Dapprich, A. D. Daniels, 
 O. Farkas, J. B. Foresman, J. V. Ortiz, J. Cioslowski, 
 and D. J. Fox, Gaussian, Inc., Wallingford CT, 2013.
 
 ******************************************
 Gaussian 09:  EM64L-G09RevD.01 24-Apr-2013
                18-Aug-2021 
 ******************************************
 %mem=15gb
 %nproc=8
 Will use up to    8 processors via shared memory.
 ------------------------------------------------------------
 #b3lyp/gen pseudo=read opt freq=noraman scrf=(solvent=water)
 ------------------------------------------------------------
 1/14=-1,18=20,19=15,26=3,38=1/1,3;
 2/9=110,12=2,17=6,18=5,40=1/2;
 3/5=7,11=2,16=1,17=8,25=1,30=1,70=2201,71=1,72=1,74=-5/1,2,3;
 4//1;
 5/5=2,38=5,53=1/2;
 6/7=2,8=2,9=2,10=2,28=1/1;
 7//1,2,3,16;
 1/14=-1,18=20,19=15,26=3/3(2);
 2/9=110/2;
 99//99;
 2/9=110/2;
 3/5=7,6=1,11=2,16=1,17=8,25=1,30=1,70=2205,71=1,72=1,74=-5,82=7/1,2,3;
 4/5=5,16=3,69=1/1;
 5/5=2,38=5,53=1/2;
 7//1,2,3,16;
 1/14=-1,18=20,19=15,26=3/3(-5);
 2/9=110/2;
 6/7=2,8=2,9=2,10=2,19=2,28=1/1;
 99/9=1/99;
 ------------
 Estrutura 22
 ------------
 Symbolic Z-matrix:
 Charge = -2 Multiplicity = 1
 Pt                   -0.31955   0.33835   0. 
 Br                   -0.31955   0.33835  -2.43 
 Cl                   -2.59955   0.33835   0. 
 Cl                   -0.31955   2.61835   0. 
 Br                   -0.31955  -2.09165   0. 
 Cl                    1.96045   0.33835   0. 
 Br                   -0.31955   0.33835   2.43 
 

 GradGradGradGradGradGradGradGradGradGradGradGradGradGradGradGradGradGrad
 Berny optimization.
 Initialization pass.
                           ----------------------------
                           !    Initial Parameters    !
                           ! (Angstroms and Degrees)  !
 --------------------------                            --------------------------
 ! Name  Definition              Value          Derivative Info.                !
 --------------------------------------------------------------------------------
 ! R1    R(1,2)                  2.43           estimate D2E/DX2                !
 ! R2    R(1,3)                  2.28           estimate D2E/DX2                !
 ! R3    R(1,4)                  2.28           estimate D2E/DX2                !
 ! R4    R(1,5)                  2.43           estimate D2E/DX2                !
 ! R5    R(1,6)                  2.28           estimate D2E/DX2                !
 ! R6    R(1,7)                  2.43           estimate D2E/DX2                !
 ! A1    A(2,1,3)               90.0            estimate D2E/DX2                !
 ! A2    A(2,1,4)               90.0            estimate D2E/DX2                !
 ! A3    A(2,1,5)               90.0            estimate D2E/DX2                !
 ! A4    A(2,1,6)               90.0            estimate D2E/DX2                !
 ! A5    A(3,1,4)               90.0            estimate D2E/DX2                !
 ! A6    A(3,1,5)               90.0            estimate D2E/DX2                !
 ! A7    A(3,1,7)               90.0            estimate D2E/DX2                !
 ! A8    A(4,1,6)               90.0            estimate D2E/DX2                !
 ! A9    A(4,1,7)               90.0            estimate D2E/DX2                !
 ! A10   A(5,1,6)               90.0            estimate D2E/DX2                !
 ! A11   A(5,1,7)               90.0            estimate D2E/DX2                !
 ! A12   A(6,1,7)               90.0            estimate D2E/DX2                !
 ! A13   L(2,1,7,3,-1)         180.0            estimate D2E/DX2                !
 ! A14   L(3,1,6,2,-1)         180.0            estimate D2E/DX2                !
 ! A15   L(4,1,5,2,-1)         180.0            estimate D2E/DX2                !
 ! A16   L(2,1,7,3,-2)         180.0            estimate D2E/DX2                !
 ! A17   L(3,1,6,2,-2)         180.0            estimate D2E/DX2                !
 ! A18   L(4,1,5,2,-2)         180.0            estimate D2E/DX2                !
 ! D1    D(2,1,4,3)             90.0            estimate D2E/DX2                !
 ! D2    D(2,1,5,3)            -90.0            estimate D2E/DX2                !
 ! D3    D(2,1,6,4)             90.0            estimate D2E/DX2                !
 ! D4    D(2,1,6,5)            -90.0            estimate D2E/DX2                !
 ! D5    D(3,1,7,4)            -90.0            estimate D2E/DX2                !
 ! D6    D(3,1,7,5)             90.0            estimate D2E/DX2                !
 ! D7    D(4,1,7,6)            -90.0            estimate D2E/DX2                !
 ! D8    D(5,1,7,6)             90.0            estimate D2E/DX2                !
 --------------------------------------------------------------------------------
 Trust Radius=3.00D-01 FncErr=1.00D-07 GrdErr=1.00D-06
 Number of steps in this run=     42 maximum allowed number of steps=    100.
 GradGradGradGradGradGradGradGradGradGradGradGradGradGradGradGradGradGrad

                          Input orientation:                          
 ---------------------------------------------------------------------
 Center     Atomic      Atomic             Coordinates (Angstroms)
 Number     Number       Type             X           Y           Z
 ---------------------------------------------------------------------
      1         78           0       -0.319549    0.338346    0.000000
      2         35           0       -0.319549    0.338346   -2.430000
      3         17           0       -2.599549    0.338346    0.000000
      4         17           0       -0.319549    2.618346    0.000000
      5         35           0       -0.319549   -2.091654    0.000000
      6         17           0        1.960451    0.338346    0.000000
      7         35           0       -0.319549    0.338346    2.430000
 ---------------------------------------------------------------------
                    Distance matrix (angstroms):
                    1          2          3          4          5
     1  Pt   0.000000
     2  Br   2.430000   0.000000
     3  Cl   2.280000   3.332161   0.000000
     4  Cl   2.280000   3.332161   3.224407   0.000000
     5  Br   2.430000   3.436539   3.332161   4.710000   0.000000
     6  Cl   2.280000   3.332161   4.560000   3.224407   3.332161
     7  Br   2.430000   4.860000   3.332161   3.332161   3.436539
                    6          7
     6  Cl   0.000000
     7  Br   3.332161   0.000000
 Stoichiometry    Br3Cl3Pt(2-)
 Framework group  C2V[C2(BrPtCl),SGV(Br2),SGV'(Cl2)]
 Deg. of freedom     6
 Full point group                 C2V     NOp   4
 Largest Abelian subgroup         C2V     NOp   4
 Largest concise Abelian subgroup C2V     NOp   4
                         Standard orientation:                         
 ---------------------------------------------------------------------
 Center     Atomic      Atomic             Coordinates (Angstroms)
 Number     Number       Type             X           Y           Z
 ---------------------------------------------------------------------
      1         78           0        0.000000    0.000000    0.197821
      2         35           0        0.000000    2.430000    0.197821
      3         17           0       -2.280000    0.000000    0.197821
      4         17           0        0.000000    0.000000    2.477821
      5         35           0        0.000000    0.000000   -2.232179
      6         17           0        2.280000    0.000000    0.197821
      7         35           0        0.000000   -2.430000    0.197821
 ---------------------------------------------------------------------
 Rotational constants (GHZ):      0.5115391      0.3900812      0.3247095
 General basis read from cards:  (5D, 7F)
 ======================================================================================================
                                       Pseudopotential Parameters
 ======================================================================================================
  Center     Atomic      Valence      Angular      Power
  Number     Number     Electrons     Momentum     of R      Exponent        Coefficient   SO-Coeffient
 ======================================================================================================
    1         78           18
                                      G and up 
                                                     1      728.9394056       -0.16192680    0.00000000
                                                     2      320.6567800    -1320.28738520    0.00000000
                                                     2       52.8680174     -298.31781350    0.00000000
                                                     2       12.0280128      -87.58370650    0.00000000
                                                     2        3.5238913       -8.14932740    0.00000000
                                      S - G
                                                     0      409.4437358        2.73342180    0.00000000
                                                     1      274.5419231       59.70243290    0.00000000
                                                     2      127.5658570      891.45895500    0.00000000
                                                     2       32.9036631      368.44676560    0.00000000
                                                     2        5.0593880      238.02630900    0.00000000
                                                     2        4.1506556     -107.05564540    0.00000000
                                      P - G
                                                     0      466.1728892        1.88785680    0.00000000
                                                     1      120.7888259       76.01386290    0.00000000
                                                     2       36.4118791      343.55111160    0.00000000
                                                     2        5.6985408      119.49117860    0.00000000
                                      D - G
                                                     0      249.5650763        2.93436780    0.00000000
                                                     1      126.6678585       59.33065710    0.00000000
                                                     2       63.1430586      452.44451940    0.00000000
                                                     2       17.9059470      210.47694790    0.00000000
                                                     2        4.2239373       58.62541120    0.00000000
                                      F - G
                                                     0      121.8158799        3.95342530    0.00000000
                                                     1       60.8757030       53.85551820    0.00000000
                                                     2       31.4767147      247.43051330    0.00000000
                                                     2        9.8811751      127.81879760    0.00000000
                                                     2        2.7319874       15.37720460    0.00000000
    2         35
                                   No pseudopotential on this center.
    3         17
                                   No pseudopotential on this center.
    4         17
                                   No pseudopotential on this center.
    5         35
                                   No pseudopotential on this center.
    6         17
                                   No pseudopotential on this center.
    7         35
                                   No pseudopotential on this center.
 ======================================================================================================
 There are    79 symmetry adapted cartesian basis functions of A1  symmetry.
 There are    21 symmetry adapted cartesian basis functions of A2  symmetry.
 There are    40 symmetry adapted cartesian basis functions of B1  symmetry.
 There are    46 symmetry adapted cartesian basis functions of B2  symmetry.
 There are    69 symmetry adapted basis functions of A1  symmetry.
 There are    21 symmetry adapted basis functions of A2  symmetry.
 There are    39 symmetry adapted basis functions of B1  symmetry.
 There are    43 symmetry adapted basis functions of B2  symmetry.
   172 basis functions,   394 primitive gaussians,   186 cartesian basis functions
    88 alpha electrons       88 beta electrons
       nuclear repulsion energy      2086.4704291162 Hartrees.
 NAtoms=    7 NActive=    7 NUniq=    5 SFac= 1.96D+00 NAtFMM=   60 NAOKFM=F Big=F
 Integral buffers will be    131072 words long.
 Raffenetti 2 integral format.
 Two-electron integral symmetry is turned on.
 ------------------------------------------------------------------------------
 Polarizable Continuum Model (PCM)
 =================================
 Model                : PCM (using non-symmetric T matrix).
 Atomic radii         : UFF (Universal Force Field).
 Polarization charges : Total charges.
 Charge compensation  : None.
 Solution method      : On-the-fly selection.
 Cavity type          : Scaled VdW (van der Waals Surface) (Alpha=1.100).
 Cavity algorithm     : GePol (No added spheres)
                        Default sphere list used, NSphG=    7.
                        Lebedev-Laikov grids with approx.  5.0 points / Ang**2.
                        Smoothing algorithm: Karplus/York (Gamma=1.0000).
                        Polarization charges: spherical gaussians, with
                                              point-specific exponents (IZeta= 3).
                        Self-potential: point-specific (ISelfS= 7).
                        Self-field    : sphere-specific E.n sum rule (ISelfD= 2).
 1st derivatives      : Analytical E(r).r(x)/FMM algorithm (CHGder, D1EAlg=3).
                        Cavity 1st derivative terms included.
 Solvent              : Water, Eps=  78.355300 Eps(inf)=   1.777849
 ------------------------------------------------------------------------------
 Spheres list:
 ISph  on   Nord     Re0    Alpha      Xe            Ye            Ze
    1  Pt      1    1.3770  1.100      0.000000      0.000000      0.197821
    2  Br      2    2.0945  1.100      0.000000      2.430000      0.197821
    3  Cl      3    1.9735  1.100     -2.280000      0.000000      0.197821
    4  Cl      4    1.9735  1.100      0.000000      0.000000      2.477821
    5  Br      5    2.0945  1.100      0.000000      0.000000     -2.232179
    6  Cl      6    1.9735  1.100      2.280000      0.000000      0.197821
    7  Br      7    2.0945  1.100      0.000000     -2.430000      0.197821
 ------------------------------------------------------------------------------
 One-electron integrals computed using PRISM.
   4 Symmetry operations used in ECPInt.
 ECPInt:  NShTT=    2346 NPrTT=   13080 LenC2=    2116 LenP2D=    8149.
 LDataN:  DoStor=T MaxTD1= 6 Len=  172
 NBasis=   172 RedAO= T EigKep=  7.05D-03  NBF=    69    21    39    43
 NBsUse=   172 1.00D-06 EigRej= -1.00D+00 NBFU=    69    21    39    43
 Defaulting to unpruned grid for atomic number  78.
 ExpMin= 2.90D-02 ExpMax= 1.13D+05 ExpMxC= 1.70D+04 IAcc=3 IRadAn=         5 AccDes= 0.00D+00
 Harris functional with IExCor=  402 and IRadAn=       5 diagonalized for initial guess.
 HarFok:  IExCor=  402 AccDes= 0.00D+00 IRadAn=         5 IDoV= 1 UseB2=F ITyADJ=14
 ICtDFT=  3500011 ScaDFX=  1.000000  1.000000  1.000000  1.000000
 Defaulting to unpruned grid for atomic number  78.
 Defaulting to unpruned grid for atomic number  78.
 Defaulting to unpruned grid for atomic number  78.
 Defaulting to unpruned grid for atomic number  78.
 Defaulting to unpruned grid for atomic number  78.
 Defaulting to unpruned grid for atomic number  78.
 Defaulting to unpruned grid for atomic number  78.
 Defaulting to unpruned grid for atomic number  78.
 FoFCou: FMM=F IPFlag=           0 FMFlag=      100000 FMFlg1=           0
         NFxFlg=           0 DoJE=T BraDBF=F KetDBF=T FulRan=T
         wScrn=  0.000000 ICntrl=     500 IOpCl=  0 I1Cent=   200000004 NGrid=           0
         NMat0=    1 NMatS0=      1 NMatT0=    0 NMatD0=    1 NMtDS0=    0 NMtDT0=    0
 Petite list used in FoFCou.
 Initial guess orbital symmetries:
       Occupied  (A1) (B2) (A1) (A1) (B1) (A1) (A1) (B2) (A1) (A1)
                 (B2) (B1) (B2) (A1) (A1) (B1) (A2) (B2) (B1) (A1)
                 (A1) (A1) (B2) (A1) (B1) (A1) (A1) (B2) (A2) (A1)
                 (B1) (B2) (B1) (A1) (B2) (A1) (B2) (B1) (A1) (B2)
                 (B1) (A2) (A1) (A1) (B2) (A1) (B2) (B1) (B2) (A1)
                 (A2) (B1) (A1) (A2) (A1) (B2) (B1) (A2) (B2) (A1)
                 (B1) (A1) (B2) (A1) (A1) (B1) (A1) (A1) (B2) (A1)
                 (A2) (B2) (B1) (A1) (B1) (A1) (B2) (A1) (B1) (B1)
                 (B2) (A2) (B2) (A1) (B1) (B2) (A2) (B1)
       Virtual   (A1) (A1) (B2) (A1) (B1) (A1) (B2) (B1) (A1) (A1)
                 (B2) (A2) (B1) (A1) (A1) (B2) (A1) (B2) (A2) (B1)
                 (A2) (A1) (B2) (A1) (B1) (B2) (B2) (A1) (A2) (B1)
                 (A1) (B1) (A1) (A2) (A1) (B1) (B2) (A1) (A1) (B1)
                 (B2) (A1) (B1) (B2) (A2) (A2) (A1) (B1) (B2) (A1)
                 (B1) (B2) (B1) (A2) (A1) (A1) (B2) (B1) (B2) (A1)
                 (A1) (A2) (B1) (B2) (A1) (B1) (A1) (A1) (A2) (B2)
                 (B1) (A2) (A1) (A1) (B1) (B2) (A1) (A2) (B2) (B1)
                 (B2) (A1) (A1) (A1)
 The electronic state of the initial guess is 1-A1.
 Keep R1 ints in memory in symmetry-blocked form, NReq=138921042.
 Requested convergence on RMS density matrix=1.00D-08 within 128 cycles.
 Requested convergence on MAX density matrix=1.00D-06.
 Requested convergence on             energy=1.00D-06.
 No special actions if energy rises.
 Defaulting to unpruned grid for atomic number  78.
 Defaulting to unpruned grid for atomic number  78.
 Defaulting to unpruned grid for atomic number  78.
 Defaulting to unpruned grid for atomic number  78.
 Defaulting to unpruned grid for atomic number  78.
 Defaulting to unpruned grid for atomic number  78.
 Defaulting to unpruned grid for atomic number  78.
 Defaulting to unpruned grid for atomic number  78.
 Inv3:  Mode=1 IEnd=     5964300.
 Iteration    1 A*A^-1 deviation from unit magnitude is 6.77D-15 for    467.
 Iteration    1 A*A^-1 deviation from orthogonality  is 2.87D-15 for    518    324.
 Iteration    1 A^-1*A deviation from unit magnitude is 6.22D-15 for   1159.
 Iteration    1 A^-1*A deviation from orthogonality  is 2.41D-15 for   1227   1130.
 EnCoef did   100 forward-backward iterations
 Error on total polarization charges =  0.01976
 SCF Done:  E(RB3LYP) =  -9221.45286979     A.U. after   13 cycles
            NFock= 13  Conv=0.57D-08     -V/T= 2.0102

 **********************************************************************

            Population analysis using the SCF density.

 **********************************************************************

 Orbital symmetries:
       Occupied  (B2) (A1) (A1) (A1) (B1) (A1) (B2) (A1) (A1) (B2)
                 (A1) (A1) (B1) (A1) (B2) (A2) (B1) (B2) (A1) (B1)
                 (A1) (B2) (A1) (A1) (A1) (B1) (A1) (B2) (B1) (B2)
                 (A1) (A2) (B1) (B2) (A1) (A1) (B1) (A2) (A1) (B2)
                 (B1) (B2) (A1) (B2) (A1) (A1) (A2) (B1) (B2) (A1)
                 (B1) (B2) (B1) (A2) (A1) (B2) (A2) (A1) (B1) (A1)
                 (B2) (A1) (A1) (B1) (A1) (A1) (B2) (A1) (A1) (B1)
                 (A1) (A2) (B2) (B1) (A1) (B2) (B2) (A1) (B1) (B1)
                 (B2) (A1) (A2) (B2) (B1) (B1) (A2) (B2)
       Virtual   (A1) (A1) (B2) (A1) (B1) (A1) (B2) (B1) (A1) (B2)
                 (A2) (B1) (A1) (A1) (A1) (A1) (B2) (B2) (A1) (B1)
                 (B2) (A2) (A2) (A1) (B2) (B1) (B2) (A1) (A1) (A2)
                 (B1) (B1) (A1) (A1) (A2) (B1) (A1) (B1) (B2) (A1)
                 (B2) (A1) (B1) (B2) (A1) (A2) (B1) (A2) (B2) (A1)
                 (B1) (B2) (B1) (A2) (A1) (A1) (B2) (B1) (A1) (B2)
                 (A1) (A2) (B1) (B2) (A1) (B1) (A1) (A1) (A2) (B2)
                 (B1) (A2) (A1) (A1) (B1) (B2) (A1) (B2) (A2) (B1)
                 (B2) (A1) (A1) (A1)
 The electronic state is 1-A1.
 Alpha  occ. eigenvalues -- -482.74211-482.74210-482.74193-101.44502-101.44495
 Alpha  occ. eigenvalues -- -101.44491 -62.42373 -62.42372 -62.42352 -56.25559
 Alpha  occ. eigenvalues --  -56.25558 -56.25538 -56.25271 -56.25271 -56.25271
 Alpha  occ. eigenvalues --  -56.25271 -56.25252 -56.25251  -9.39844  -9.39836
 Alpha  occ. eigenvalues --   -9.39833  -8.64141  -8.64139  -8.64119  -7.16644
 Alpha  occ. eigenvalues --   -7.16635  -7.16632  -7.15804  -7.15804  -7.15797
 Alpha  occ. eigenvalues --   -7.15796  -7.15796  -7.15796  -6.47325  -6.47325
 Alpha  occ. eigenvalues --   -6.47301  -6.46275  -6.46275  -6.46274  -6.46274
 Alpha  occ. eigenvalues --   -6.46256  -6.46255  -4.00796  -2.58781  -2.58779
 Alpha  occ. eigenvalues --   -2.58757  -2.58481  -2.58481  -2.58481  -2.58481
 Alpha  occ. eigenvalues --   -2.58459  -2.58459  -2.57656  -2.57656  -2.57656
 Alpha  occ. eigenvalues --   -2.57656  -2.57638  -2.57637  -2.22208  -2.22054
 Alpha  occ. eigenvalues --   -2.21904  -0.77705  -0.75294  -0.74906  -0.72653
 Alpha  occ. eigenvalues --   -0.71638  -0.71531  -0.41675  -0.40760  -0.39881
 Alpha  occ. eigenvalues --   -0.39645  -0.39501  -0.39107  -0.32348  -0.32127
 Alpha  occ. eigenvalues --   -0.32065  -0.26543  -0.26358  -0.26127  -0.25330
 Alpha  occ. eigenvalues --   -0.25098  -0.25073  -0.24541  -0.24480  -0.24454
 Alpha  occ. eigenvalues --   -0.23568  -0.23203  -0.22729
 Alpha virt. eigenvalues --   -0.08684  -0.07643   0.05541   0.05759   0.05961
 Alpha virt. eigenvalues --    0.12479   0.24439   0.24885   0.24893   0.35224
 Alpha virt. eigenvalues --    0.35988   0.37041   0.37289   0.43674   0.48204
 Alpha virt. eigenvalues --    0.49139   0.51340   0.55109   0.55226   0.56160
 Alpha virt. eigenvalues --    0.56216   0.56341   0.57722   0.57755   0.59170
 Alpha virt. eigenvalues --    0.60128   0.61556   0.61572   0.61688   0.62654
 Alpha virt. eigenvalues --    0.64783   0.67545   0.68999   0.69891   0.71797
 Alpha virt. eigenvalues --    0.72213   0.72395   0.74058   0.74248   0.76232
 Alpha virt. eigenvalues --    0.78821   0.79049   0.79634   0.82258   0.82262
 Alpha virt. eigenvalues --    0.82763   0.83000   0.83042   0.86078   0.88501
 Alpha virt. eigenvalues --    0.89056   0.98701   0.99847   1.00388   1.02799
 Alpha virt. eigenvalues --    1.05343   1.08249   1.10206   1.12765   1.13125
 Alpha virt. eigenvalues --    1.14700   1.20634   1.24340   1.26000   1.27169
 Alpha virt. eigenvalues --    1.44181   1.45053   1.52166   3.44472   3.45251
 Alpha virt. eigenvalues --    3.45325   3.45869   3.46520   3.48923   3.49911
 Alpha virt. eigenvalues --    3.50276   3.54696   3.60654   3.61027   3.66439
 Alpha virt. eigenvalues --    3.68939   3.70670   3.83954   7.10247
          Condensed to atoms (all electrons):
               1          2          3          4          5          6
     1  Pt  17.433586   0.183088   0.227017   0.214605   0.196057   0.227017
     2  Br   0.183088  35.108858  -0.023205  -0.024192  -0.028656  -0.023205
     3  Cl   0.227017  -0.023205  17.120765  -0.018580  -0.022010  -0.001870
     4  Cl   0.214605  -0.024192  -0.018580  17.132181  -0.003250  -0.018580
     5  Br   0.196057  -0.028656  -0.022010  -0.003250  35.092640  -0.022010
     6  Cl   0.227017  -0.023205  -0.001870  -0.018580  -0.022010  17.120765
     7  Br   0.183088  -0.004880  -0.023205  -0.024192  -0.028656  -0.023205
               7
     1  Pt   0.183088
     2  Br  -0.004880
     3  Cl  -0.023205
     4  Cl  -0.024192
     5  Br  -0.028656
     6  Cl  -0.023205
     7  Br  35.108858
 Mulliken charges:
               1
     1  Pt  -0.664457
     2  Br  -0.187807
     3  Cl  -0.258912
     4  Cl  -0.257991
     5  Br  -0.184114
     6  Cl  -0.258912
     7  Br  -0.187807
 Sum of Mulliken charges =  -2.00000
 Mulliken charges with hydrogens summed into heavy atoms:
               1
     1  Pt  -0.664457
     2  Br  -0.187807
     3  Cl  -0.258912
     4  Cl  -0.257991
     5  Br  -0.184114
     6  Cl  -0.258912
     7  Br  -0.187807
 Electronic spatial extent (au):  <R**2>=           3440.7657
 Charge=             -2.0000 electrons
 Dipole moment (field-independent basis, Debye):
    X=              0.0000    Y=              0.0000    Z=             -1.6928  Tot=              1.6928
 Quadrupole moment (field-independent basis, Debye-Ang):
   XX=           -143.1632   YY=           -144.4899   ZZ=           -144.0816
   XY=              0.0000   XZ=              0.0000   YZ=              0.0000
 Traceless Quadrupole moment (field-independent basis, Debye-Ang):
   XX=              0.7483   YY=             -0.5783   ZZ=             -0.1700
   XY=              0.0000   XZ=              0.0000   YZ=              0.0000
 Octapole moment (field-independent basis, Debye-Ang**2):
  XXX=              0.0000  YYY=              0.0000  ZZZ=            -34.4905  XYY=              0.0000
  XXY=              0.0000  XXZ=            -11.2037  XZZ=              0.0000  YZZ=              0.0000
  YYZ=            -11.5593  XYZ=              0.0000
 Hexadecapole moment (field-independent basis, Debye-Ang**3):
 XXXX=          -1059.3469 YYYY=          -1591.5480 ZZZZ=          -1318.2960 XXXY=              0.0000
 XXXZ=              0.0000 YYYX=              0.0000 YYYZ=              0.0000 ZZZX=              0.0000
 ZZZY=              0.0000 XXYY=           -429.8512 XXZZ=           -382.0452 YYZZ=           -475.2951
 XXYZ=              0.0000 YYXZ=              0.0000 ZZXY=              0.0000
 N-N= 2.086470429116D+03 E-N=-2.621641121527D+04  KE= 9.128107563036D+03
 Symmetry A1   KE= 4.851179517879D+03
 Symmetry A2   KE= 4.689332505009D+02
 Symmetry B1   KE= 1.177911153653D+03
 Symmetry B2   KE= 2.630083641002D+03
   4 Symmetry operations used in ECPInt.
 ECPInt:  NShTT=    2346 NPrTT=   13080 LenC2=    2116 LenP2D=    8149.
 LDataN:  DoStor=T MaxTD1= 7 Len=  274
 D1PCM: PCM CHGder 1st derivatives, ID1Alg=3 FixD1E=F DoIter=F DoCFld=F I1PDM=0.
 Calling FoFJK, ICntrl=      2127 FMM=F ISym2X=1 I1Cent= 0 IOpClX= 0 NMat=1 NMatS=1 NMatT=0.
 Defaulting to unpruned grid for atomic number  78.
 Defaulting to unpruned grid for atomic number  78.
 Defaulting to unpruned grid for atomic number  78.
 Defaulting to unpruned grid for atomic number  78.
 Defaulting to unpruned grid for atomic number  78.
 Defaulting to unpruned grid for atomic number  78.
 Defaulting to unpruned grid for atomic number  78.
 Defaulting to unpruned grid for atomic number  78.
 ***** Axes restored to original set *****
 -------------------------------------------------------------------
 Center     Atomic                   Forces (Hartrees/Bohr)
 Number     Number              X              Y              Z
 -------------------------------------------------------------------
      1       78           0.000000000   -0.010680179    0.000000000
      2       35           0.000000000    0.000324665   -0.035396237
      3       17          -0.042553684    0.000110733    0.000000000
      4       17           0.000000000    0.043902323    0.000000000
      5       35           0.000000000   -0.034092940    0.000000000
      6       17           0.042553684    0.000110733    0.000000000
      7       35           0.000000000    0.000324665    0.035396237
 -------------------------------------------------------------------
 Cartesian Forces:  Max     0.043902323 RMS     0.021079739

 GradGradGradGradGradGradGradGradGradGradGradGradGradGradGradGradGradGrad
 Berny optimization.
 FormGI is forming the generalized inverse of G from B-inverse, IUseBI=4.
 Internal  Forces:  Max     0.043902323 RMS     0.016972579
 Search for a local minimum.
 Step number   1 out of a maximum of   42
 All quantities printed in internal units (Hartrees-Bohrs-Radians)
 Mixed Optimization -- RFO/linear search
 Second derivative matrix not updated -- first step.
 ITU=  0
     Eigenvalues ---    0.07780   0.08487   0.08487   0.09380   0.10138
     Eigenvalues ---    0.12615   0.12615   0.19389   0.19509   0.19509
     Eigenvalues ---    0.19509   0.20546   0.22001   0.22001   0.22001
 RFO step:  Lambda=-3.73495296D-02 EMin= 7.78004210D-02
 Linear search not attempted -- first point.
 Maximum step size (   0.300) exceeded in Quadratic search.
    -- Step size scaled by   0.770
 Iteration  1 RMS(Cart)=  0.05300172 RMS(Int)=  0.00002454
 Iteration  2 RMS(Cart)=  0.00003796 RMS(Int)=  0.00000044
 Iteration  3 RMS(Cart)=  0.00000000 RMS(Int)=  0.00000044
 ClnCor:  largest displacement from symmetrization is 4.90D-04 for atom     7.
 Variable       Old X    -DE/DX   Delta X   Delta X   Delta X     New X
                                 (Linear)    (Quad)   (Total)
    R1        4.59203   0.03540   0.00000   0.11729   0.11729   4.70932
    R2        4.30858   0.04255   0.00000   0.12735   0.12735   4.43593
    R3        4.30858   0.04390   0.00000   0.13139   0.13139   4.43996
    R4        4.59203   0.03409   0.00000   0.11297   0.11297   4.70500
    R5        4.30858   0.04255   0.00000   0.12735   0.12735   4.43593
    R6        4.59203   0.03540   0.00000   0.11729   0.11729   4.70932
    A1        1.57080   0.00000   0.00000   0.00000   0.00000   1.57080
    A2        1.57080  -0.00021   0.00000  -0.00155  -0.00161   1.56919
    A3        1.57080   0.00021   0.00000   0.00155   0.00161   1.57241
    A4        1.57080   0.00000   0.00000   0.00000   0.00000   1.57080
    A5        1.57080  -0.00008   0.00000  -0.00050  -0.00050   1.57030
    A6        1.57080   0.00008   0.00000   0.00050   0.00050   1.57130
    A7        1.57080   0.00000   0.00000   0.00000   0.00000   1.57080
    A8        1.57080  -0.00008   0.00000  -0.00050  -0.00050   1.57030
    A9        1.57080  -0.00043   0.00000  -0.00177  -0.00161   1.56919
   A10        1.57080   0.00008   0.00000   0.00050   0.00050   1.57130
   A11        1.57080   0.00043   0.00000   0.00177   0.00161   1.57241
   A12        1.57080   0.00000   0.00000   0.00000   0.00000   1.57080
   A13        3.14159   0.00000   0.00000   0.00000   0.00000   3.14159
   A14        3.14159   0.00000   0.00000   0.00000   0.00000   3.14159
   A15        3.14159   0.00000   0.00000   0.00000   0.00000   3.14159
   A16        3.14159   0.00064   0.00000   0.00332   0.00322   3.14481
   A17        3.14159  -0.00016   0.00000  -0.00100  -0.00100   3.14059
   A18        3.14159   0.00000   0.00000   0.00000   0.00000   3.14159
    D1        1.57080   0.00000   0.00000   0.00000   0.00000   1.57080
    D2       -1.57080   0.00000   0.00000   0.00000   0.00000  -1.57080
    D3        1.57080  -0.00021   0.00000  -0.00155  -0.00161   1.56919
    D4       -1.57080  -0.00021   0.00000  -0.00155  -0.00161  -1.57241
    D5       -1.57080   0.00008   0.00000   0.00050   0.00050  -1.57030
    D6        1.57080   0.00008   0.00000   0.00050   0.00050   1.57130
    D7       -1.57080   0.00008   0.00000   0.00050   0.00050  -1.57030
    D8        1.57080   0.00008   0.00000   0.00050   0.00050   1.57130
         Item               Value     Threshold  Converged?
 Maximum Force            0.043902     0.000450     NO 
 RMS     Force            0.016973     0.000300     NO 
 Maximum Displacement     0.127352     0.001800     NO 
 RMS     Displacement     0.053001     0.001200     NO 
 Predicted change in Energy=-1.936941D-02
 GradGradGradGradGradGradGradGradGradGradGradGradGradGradGradGradGradGrad

                          Input orientation:                          
 ---------------------------------------------------------------------
 Center     Atomic      Atomic             Coordinates (Angstroms)
 Number     Number       Type             X           Y           Z
 ---------------------------------------------------------------------
      1         78           0       -0.319549    0.335434    0.000000
      2         35           0       -0.319549    0.339445   -2.492062
      3         17           0       -2.666941    0.336611    0.000000
      4         17           0       -0.319549    2.684962    0.000000
      5         35           0       -0.319549   -2.154347    0.000000
      6         17           0        2.027843    0.336611    0.000000
      7         35           0       -0.319549    0.339445    2.492062
 ---------------------------------------------------------------------
                    Distance matrix (angstroms):
                    1          2          3          4          5
     1  Pt   0.000000
     2  Br   2.492065   0.000000
     3  Cl   2.347392   3.423541   0.000000
     4  Cl   2.349528   3.422254   3.320392   0.000000
     5  Br   2.489781   3.525532   3.422736   4.839309   0.000000
     6  Cl   2.347392   3.423541   4.694784   3.320392   3.422736
     7  Br   2.492065   4.984125   3.423541   3.422254   3.525532
                    6          7
     6  Cl   0.000000
     7  Br   3.423541   0.000000
 Stoichiometry    Br3Cl3Pt(2-)
 Framework group  C2V[C2(BrPtCl),SGV(Br2),SGV'(Cl2)]
 Deg. of freedom     6
 Full point group                 C2V     NOp   4
 Largest Abelian subgroup         C2V     NOp   4
 Largest concise Abelian subgroup C2V     NOp   4
                         Standard orientation:                         
 ---------------------------------------------------------------------
 Center     Atomic      Atomic             Coordinates (Angstroms)
 Number     Number       Type             X           Y           Z
 ---------------------------------------------------------------------
      1         78           0        0.000000    0.000000    0.200340
      2         35           0        0.000000    2.492062    0.204351
      3         17           0       -2.347392    0.000000    0.201516
      4         17           0        0.000000    0.000000    2.549868
      5         35           0        0.000000    0.000000   -2.289441
      6         17           0        2.347392    0.000000    0.201516
      7         35           0        0.000000   -2.492062    0.204351
 ---------------------------------------------------------------------
 Rotational constants (GHZ):      0.4842761      0.3700786      0.3084538
 Basis read from rwf:  (5D, 7F)
 Pseudo-potential data read from rwf file.
 There are    79 symmetry adapted cartesian basis functions of A1  symmetry.
 There are    21 symmetry adapted cartesian basis functions of A2  symmetry.
 There are    40 symmetry adapted cartesian basis functions of B1  symmetry.
 There are    46 symmetry adapted cartesian basis functions of B2  symmetry.
 There are    69 symmetry adapted basis functions of A1  symmetry.
 There are    21 symmetry adapted basis functions of A2  symmetry.
 There are    39 symmetry adapted basis functions of B1  symmetry.
 There are    43 symmetry adapted basis functions of B2  symmetry.
   172 basis functions,   394 primitive gaussians,   186 cartesian basis functions
    88 alpha electrons       88 beta electrons
       nuclear repulsion energy      2031.7624186097 Hartrees.
 NAtoms=    7 NActive=    7 NUniq=    5 SFac= 1.96D+00 NAtFMM=   60 NAOKFM=F Big=F
 Integral buffers will be    131072 words long.
 Raffenetti 2 integral format.
 Two-electron integral symmetry is turned on.
 ------------------------------------------------------------------------------
 Polarizable Continuum Model (PCM)
 =================================
 Model                : PCM (using non-symmetric T matrix).
 Atomic radii         : UFF (Universal Force Field).
 Polarization charges : Total charges.
 Charge compensation  : None.
 Solution method      : On-the-fly selection.
 Cavity type          : Scaled VdW (van der Waals Surface) (Alpha=1.100).
 Cavity algorithm     : GePol (No added spheres)
                        Default sphere list used, NSphG=    7.
                        Lebedev-Laikov grids with approx.  5.0 points / Ang**2.
                        Smoothing algorithm: Karplus/York (Gamma=1.0000).
                        Polarization charges: spherical gaussians, with
                                              point-specific exponents (IZeta= 3).
                        Self-potential: point-specific (ISelfS= 7).
                        Self-field    : sphere-specific E.n sum rule (ISelfD= 2).
 1st derivatives      : Analytical E(r).r(x)/FMM algorithm (CHGder, D1EAlg=3).
                        Cavity 1st derivative terms included.
 Solvent              : Water, Eps=  78.355300 Eps(inf)=   1.777849
 ------------------------------------------------------------------------------
 Spheres list:
 ISph  on   Nord     Re0    Alpha      Xe            Ye            Ze
    1  Pt      1    1.3770  1.100      0.000000      0.000000      0.200340
    2  Br      2    2.0945  1.100      0.000000      2.492062      0.204351
    3  Cl      3    1.9735  1.100     -2.347392      0.000000      0.201516
    4  Cl      4    1.9735  1.100      0.000000      0.000000      2.549868
    5  Br      5    2.0945  1.100      0.000000      0.000000     -2.289441
    6  Cl      6    1.9735  1.100      2.347392      0.000000      0.201516
    7  Br      7    2.0945  1.100      0.000000     -2.492062      0.204351
 ------------------------------------------------------------------------------
 One-electron integrals computed using PRISM.
   4 Symmetry operations used in ECPInt.
 ECPInt:  NShTT=    2346 NPrTT=   13080 LenC2=    2106 LenP2D=    8058.
 LDataN:  DoStor=T MaxTD1= 6 Len=  172
 NBasis=   172 RedAO= T EigKep=  8.09D-03  NBF=    69    21    39    43
 NBsUse=   172 1.00D-06 EigRej= -1.00D+00 NBFU=    69    21    39    43
 Defaulting to unpruned grid for atomic number  78.
 Initial guess from the checkpoint file:  "/home/scr/diego/Gau-4989.chk"
 B after Tr=     0.000000    0.000000    0.000000
         Rot=    1.000000    0.000000    0.000000    0.000000 Ang=   0.00 deg.
 Initial guess orbital symmetries:
       Occupied  (B2) (A1) (A1) (A1) (B1) (A1) (B2) (A1) (A1) (B2)
                 (A1) (A1) (B1) (A1) (B2) (A2) (B1) (B2) (A1) (B1)
                 (A1) (B2) (A1) (A1) (A1) (B1) (A1) (B2) (B1) (B2)
                 (A1) (A2) (B1) (B2) (A1) (A1) (B1) (A2) (A1) (B2)
                 (B1) (B2) (A1) (B2) (A1) (A1) (A2) (B1) (B2) (A1)
                 (B1) (B2) (B1) (A2) (A1) (B2) (A2) (A1) (B1) (A1)
                 (B2) (A1) (A1) (B1) (A1) (A1) (B2) (A1) (A1) (B1)
                 (A1) (A2) (B2) (B1) (A1) (B2) (B2) (A1) (B1) (B1)
                 (B2) (A1) (A2) (B2) (B1) (B1) (A2) (B2)
       Virtual   (A1) (A1) (A1) (A1) (A1) (A1) (A1) (A1) (A1) (A1)
                 (A1) (A1) (A1) (A1) (A1) (A1) (A1) (A1) (A1) (A1)
                 (A1) (A1) (A1) (A1) (A1) (A1) (A1) (A1) (A1) (A1)
                 (A1) (A1) (A1) (A2) (A2) (A2) (A2) (A2) (A2) (A2)
                 (A2) (A2) (A2) (A2) (A2) (B1) (B1) (B1) (B1) (B1)
                 (B1) (B1) (B1) (B1) (B1) (B1) (B1) (B1) (B1) (B1)
                 (B1) (B1) (B1) (B1) (B2) (B2) (B2) (B2) (B2) (B2)
                 (B2) (B2) (B2) (B2) (B2) (B2) (B2) (B2) (B2) (B2)
                 (B2) (B2) (B2) (B2)
 ExpMin= 2.90D-02 ExpMax= 1.13D+05 ExpMxC= 1.70D+04 IAcc=3 IRadAn=         5 AccDes= 0.00D+00
 Harris functional with IExCor=  402 and IRadAn=       5 diagonalized for initial guess.
 HarFok:  IExCor=  402 AccDes= 0.00D+00 IRadAn=         5 IDoV= 1 UseB2=F ITyADJ=14
 ICtDFT=  3500011 ScaDFX=  1.000000  1.000000  1.000000  1.000000
 Defaulting to unpruned grid for atomic number  78.
 Defaulting to unpruned grid for atomic number  78.
 Defaulting to unpruned grid for atomic number  78.
 Defaulting to unpruned grid for atomic number  78.
 Defaulting to unpruned grid for atomic number  78.
 Defaulting to unpruned grid for atomic number  78.
 Defaulting to unpruned grid for atomic number  78.
 Defaulting to unpruned grid for atomic number  78.
 FoFCou: FMM=F IPFlag=           0 FMFlag=      100000 FMFlg1=           0
         NFxFlg=           0 DoJE=T BraDBF=F KetDBF=T FulRan=T
         wScrn=  0.000000 ICntrl=     500 IOpCl=  0 I1Cent=   200000004 NGrid=           0
         NMat0=    1 NMatS0=      1 NMatT0=    0 NMatD0=    1 NMtDS0=    0 NMtDT0=    0
 Petite list used in FoFCou.
 Keep R1 ints in memory in symmetry-blocked form, NReq=138921042.
 Requested convergence on RMS density matrix=1.00D-08 within 128 cycles.
 Requested convergence on MAX density matrix=1.00D-06.
 Requested convergence on             energy=1.00D-06.
 No special actions if energy rises.
 Defaulting to unpruned grid for atomic number  78.
 Defaulting to unpruned grid for atomic number  78.
 Defaulting to unpruned grid for atomic number  78.
 Defaulting to unpruned grid for atomic number  78.
 Defaulting to unpruned grid for atomic number  78.
 Defaulting to unpruned grid for atomic number  78.
 Defaulting to unpruned grid for atomic number  78.
 Defaulting to unpruned grid for atomic number  78.
 Inv3:  Mode=1 IEnd=     6134700.
 Iteration    1 A*A^-1 deviation from unit magnitude is 5.55D-15 for    127.
 Iteration    1 A*A^-1 deviation from orthogonality  is 2.94D-15 for   1390   1110.
 Iteration    1 A^-1*A deviation from unit magnitude is 6.77D-15 for    859.
 Iteration    1 A^-1*A deviation from orthogonality  is 5.01D-15 for    653     24.
 Error on total polarization charges =  0.01898
 SCF Done:  E(RB3LYP) =  -9221.47295748     A.U. after   10 cycles
            NFock= 10  Conv=0.45D-08     -V/T= 2.0103
   4 Symmetry operations used in ECPInt.
 ECPInt:  NShTT=    2346 NPrTT=   13080 LenC2=    2106 LenP2D=    8058.
 LDataN:  DoStor=T MaxTD1= 7 Len=  274
 D1PCM: PCM CHGder 1st derivatives, ID1Alg=3 FixD1E=F DoIter=F DoCFld=F I1PDM=0.
 Calling FoFJK, ICntrl=      2127 FMM=F ISym2X=1 I1Cent= 0 IOpClX= 0 NMat=1 NMatS=1 NMatT=0.
 Defaulting to unpruned grid for atomic number  78.
 Defaulting to unpruned grid for atomic number  78.
 Defaulting to unpruned grid for atomic number  78.
 Defaulting to unpruned grid for atomic number  78.
 Defaulting to unpruned grid for atomic number  78.
 Defaulting to unpruned grid for atomic number  78.
 Defaulting to unpruned grid for atomic number  78.
 Defaulting to unpruned grid for atomic number  78.
 ***** Axes restored to original set *****
 -------------------------------------------------------------------
 Center     Atomic                   Forces (Hartrees/Bohr)
 Number     Number              X              Y              Z
 -------------------------------------------------------------------
      1       78           0.000000000   -0.004372617    0.000000000
      2       35           0.000000000    0.000153922   -0.015652734
      3       17          -0.017251709   -0.000180447    0.000000000
      4       17           0.000000000    0.018624077    0.000000000
      5       35           0.000000000   -0.014198412    0.000000000
      6       17           0.017251709   -0.000180447    0.000000000
      7       35           0.000000000    0.000153922    0.015652734
 -------------------------------------------------------------------
 Cartesian Forces:  Max     0.018624077 RMS     0.008871953

 GradGradGradGradGradGradGradGradGradGradGradGradGradGradGradGradGradGrad
 Berny optimization.
 Using GEDIIS/GDIIS optimizer.
 FormGI is forming the generalized inverse of G from B-inverse, IUseBI=4.
 Internal  Forces:  Max     0.018624077 RMS     0.007146044
 Search for a local minimum.
 Step number   2 out of a maximum of   42
 All quantities printed in internal units (Hartrees-Bohrs-Radians)
 Mixed Optimization -- RFO/linear search
 Update second derivatives using D2CorX and points    1    2
 DE= -2.01D-02 DEPred=-1.94D-02 R= 1.04D+00
 TightC=F SS=  1.41D+00  RLast= 3.00D-01 DXNew= 5.0454D-01 9.0002D-01
 Trust test= 1.04D+00 RLast= 3.00D-01 DXMaxT set to 5.05D-01
 ITU=  1  0
 Use linear search instead of GDIIS.
     Eigenvalues ---    0.07780   0.08486   0.08487   0.09380   0.10138
     Eigenvalues ---    0.12608   0.12622   0.17868   0.19389   0.19509
     Eigenvalues ---    0.19532   0.20546   0.21229   0.22001   0.22028
 RFO step:  Lambda=-6.73127400D-05 EMin= 7.77998374D-02
 Quartic linear search produced a step of  0.94997.
 Iteration  1 RMS(Cart)=  0.05084514 RMS(Int)=  0.00005776
 Iteration  2 RMS(Cart)=  0.00010721 RMS(Int)=  0.00000271
 Iteration  3 RMS(Cart)=  0.00000000 RMS(Int)=  0.00000271
 ClnCor:  largest displacement from symmetrization is 6.13D-04 for atom     7.
 Variable       Old X    -DE/DX   Delta X   Delta X   Delta X     New X
                                 (Linear)    (Quad)   (Total)
    R1        4.70932   0.01565   0.11142   0.00897   0.12039   4.82971
    R2        4.43593   0.01725   0.12098  -0.00687   0.11411   4.55004
    R3        4.43996   0.01862   0.12482   0.00023   0.12505   4.56501
    R4        4.70500   0.01420   0.10732  -0.00014   0.10718   4.81219
    R5        4.43593   0.01725   0.12098  -0.00687   0.11411   4.55004
    R6        4.70932   0.01565   0.11142   0.00897   0.12039   4.82971
    A1        1.57080   0.00000   0.00000   0.00001   0.00001   1.57081
    A2        1.56919  -0.00009  -0.00153  -0.00032  -0.00178   1.56740
    A3        1.57241   0.00009   0.00153   0.00032   0.00178   1.57419
    A4        1.57080   0.00000   0.00000   0.00001   0.00001   1.57081
    A5        1.57030   0.00014  -0.00048   0.00386   0.00338   1.57367
    A6        1.57130  -0.00014   0.00048  -0.00386  -0.00338   1.56792
    A7        1.57080   0.00000   0.00000   0.00001   0.00001   1.57081
    A8        1.57030   0.00014  -0.00048   0.00386   0.00338   1.57367
    A9        1.56919  -0.00017  -0.00153  -0.00006  -0.00178   1.56740
   A10        1.57130  -0.00014   0.00048  -0.00386  -0.00338   1.56792
   A11        1.57241   0.00017   0.00153   0.00006   0.00178   1.57419
   A12        1.57080   0.00000   0.00000   0.00001   0.00001   1.57081
   A13        3.14159   0.00000   0.00000   0.00001   0.00002   3.14161
   A14        3.14159   0.00000   0.00000   0.00001   0.00002   3.14161
   A15        3.14159   0.00000   0.00000   0.00000   0.00000   3.14159
   A16        3.14481   0.00026   0.00306   0.00038   0.00357   3.14838
   A17        3.14059   0.00028  -0.00095   0.00771   0.00676   3.14735
   A18        3.14159   0.00000   0.00000   0.00000   0.00000   3.14159
    D1        1.57080   0.00000   0.00000   0.00000   0.00000   1.57080
    D2       -1.57080   0.00000   0.00000   0.00000   0.00000  -1.57080
    D3        1.56919  -0.00009  -0.00153  -0.00032  -0.00178   1.56740
    D4       -1.57241  -0.00009  -0.00153  -0.00032  -0.00178  -1.57419
    D5       -1.57030  -0.00014   0.00048  -0.00386  -0.00338  -1.57367
    D6        1.57130  -0.00014   0.00048  -0.00386  -0.00338   1.56792
    D7       -1.57030  -0.00014   0.00048  -0.00386  -0.00338  -1.57367
    D8        1.57130  -0.00014   0.00048  -0.00386  -0.00338   1.56792
         Item               Value     Threshold  Converged?
 Maximum Force            0.018624     0.000450     NO 
 RMS     Force            0.007146     0.000300     NO 
 Maximum Displacement     0.124443     0.001800     NO 
 RMS     Displacement     0.050854     0.001200     NO 
 Predicted change in Energy=-4.018700D-03
 GradGradGradGradGradGradGradGradGradGradGradGradGradGradGradGradGradGrad

                          Input orientation:                          
 ---------------------------------------------------------------------
 Center     Atomic      Atomic             Coordinates (Angstroms)
 Number     Number       Type             X           Y           Z
 ---------------------------------------------------------------------
      1         78           0       -0.319549    0.335114    0.000000
      2         35           0       -0.319549    0.343788   -2.555756
      3         17           0       -2.727317    0.328183    0.000000
      4         17           0       -0.319549    2.750815    0.000000
      5         35           0       -0.319549   -2.211385    0.000000
      6         17           0        2.088219    0.328183    0.000000
      7         35           0       -0.319549    0.343788    2.555756
 ---------------------------------------------------------------------
                    Distance matrix (angstroms):
                    1          2          3          4          5
     1  Pt   0.000000
     2  Br   2.555771   0.000000
     3  Cl   2.407778   3.511336   0.000000
     4  Cl   2.415701   3.510793   3.415625   0.000000
     5  Br   2.546499   3.613973   3.499536   4.962199   0.000000
     6  Cl   2.407778   3.511336   4.815537   3.415625   3.499536
     7  Br   2.555771   5.111512   3.511336   3.510793   3.613973
                    6          7
     6  Cl   0.000000
     7  Br   3.511336   0.000000
 Stoichiometry    Br3Cl3Pt(2-)
 Framework group  C2V[C2(BrPtCl),SGV(Br2),SGV'(Cl2)]
 Deg. of freedom     6
 Full point group                 C2V     NOp   4
 Largest Abelian subgroup         C2V     NOp   4
 Largest concise Abelian subgroup C2V     NOp   4
                         Standard orientation:                         
 ---------------------------------------------------------------------
 Center     Atomic      Atomic             Coordinates (Angstroms)
 Number     Number       Type             X           Y           Z
 ---------------------------------------------------------------------
      1         78           0        0.000000    0.000000    0.203799
      2         35           0        0.000000    2.555756    0.212473
      3         17           0       -2.407768    0.000000    0.196868
      4         17           0        0.000000    0.000000    2.619500
      5         35           0        0.000000    0.000000   -2.342700
      6         17           0        2.407768    0.000000    0.196868
      7         35           0        0.000000   -2.555756    0.212473
 ---------------------------------------------------------------------
 Rotational constants (GHZ):      0.4609500      0.3518311      0.2935001
 Basis read from rwf:  (5D, 7F)
 Pseudo-potential data read from rwf file.
 There are    79 symmetry adapted cartesian basis functions of A1  symmetry.
 There are    21 symmetry adapted cartesian basis functions of A2  symmetry.
 There are    40 symmetry adapted cartesian basis functions of B1  symmetry.
 There are    46 symmetry adapted cartesian basis functions of B2  symmetry.
 There are    69 symmetry adapted basis functions of A1  symmetry.
 There are    21 symmetry adapted basis functions of A2  symmetry.
 There are    39 symmetry adapted basis functions of B1  symmetry.
 There are    43 symmetry adapted basis functions of B2  symmetry.
   172 basis functions,   394 primitive gaussians,   186 cartesian basis functions
    88 alpha electrons       88 beta electrons
       nuclear repulsion energy      1981.6495480615 Hartrees.
 NAtoms=    7 NActive=    7 NUniq=    5 SFac= 1.96D+00 NAtFMM=   60 NAOKFM=F Big=F
 Integral buffers will be    131072 words long.
 Raffenetti 2 integral format.
 Two-electron integral symmetry is turned on.
 ------------------------------------------------------------------------------
 Polarizable Continuum Model (PCM)
 =================================
 Model                : PCM (using non-symmetric T matrix).
 Atomic radii         : UFF (Universal Force Field).
 Polarization charges : Total charges.
 Charge compensation  : None.
 Solution method      : On-the-fly selection.
 Cavity type          : Scaled VdW (van der Waals Surface) (Alpha=1.100).
 Cavity algorithm     : GePol (No added spheres)
                        Default sphere list used, NSphG=    7.
                        Lebedev-Laikov grids with approx.  5.0 points / Ang**2.
                        Smoothing algorithm: Karplus/York (Gamma=1.0000).
                        Polarization charges: spherical gaussians, with
                                              point-specific exponents (IZeta= 3).
                        Self-potential: point-specific (ISelfS= 7).
                        Self-field    : sphere-specific E.n sum rule (ISelfD= 2).
 1st derivatives      : Analytical E(r).r(x)/FMM algorithm (CHGder, D1EAlg=3).
                        Cavity 1st derivative terms included.
 Solvent              : Water, Eps=  78.355300 Eps(inf)=   1.777849
 ------------------------------------------------------------------------------
 Spheres list:
 ISph  on   Nord     Re0    Alpha      Xe            Ye            Ze
    1  Pt      1    1.3770  1.100      0.000000      0.000000      0.203799
    2  Br      2    2.0945  1.100      0.000000      2.555756      0.212473
    3  Cl      3    1.9735  1.100     -2.407768      0.000000      0.196868
    4  Cl      4    1.9735  1.100      0.000000      0.000000      2.619500
    5  Br      5    2.0945  1.100      0.000000      0.000000     -2.342700
    6  Cl      6    1.9735  1.100      2.407768      0.000000      0.196868
    7  Br      7    2.0945  1.100      0.000000     -2.555756      0.212473
 ------------------------------------------------------------------------------
 One-electron integrals computed using PRISM.
   4 Symmetry operations used in ECPInt.
 ECPInt:  NShTT=    2346 NPrTT=   13080 LenC2=    2086 LenP2D=    7971.
 LDataN:  DoStor=T MaxTD1= 6 Len=  172
 NBasis=   172 RedAO= T EigKep=  9.40D-03  NBF=    69    21    39    43
 NBsUse=   172 1.00D-06 EigRej= -1.00D+00 NBFU=    69    21    39    43
 Defaulting to unpruned grid for atomic number  78.
 Initial guess from the checkpoint file:  "/home/scr/diego/Gau-4989.chk"
 B after Tr=     0.000000    0.000000    0.000000
         Rot=    1.000000    0.000000    0.000000    0.000000 Ang=   0.00 deg.
 Initial guess orbital symmetries:
       Occupied  (A1) (B2) (A1) (A1) (B1) (A1) (A1) (B2) (A1) (A1)
                 (B2) (A1) (B2) (B1) (B1) (A1) (A2) (B2) (B1) (A1)
                 (A1) (A1) (B2) (A1) (B1) (A1) (A1) (B2) (A1) (A2)
                 (B1) (B2) (B1) (A1) (B2) (A1) (B1) (B2) (B1) (A2)
                 (A1) (B2) (A1) (A1) (B2) (A1) (B1) (B2) (A2) (B2)
                 (B1) (A1) (A2) (A1) (B1) (A2) (A1) (B2) (B1) (A1)
                 (B2) (A1) (A1) (B1) (A1) (A1) (B2) (A1) (A1) (A1)
                 (B1) (A2) (B2) (B1) (A1) (B2) (B2) (A1) (B1) (B1)
                 (B2) (A1) (A2) (B1) (B2) (B1) (A2) (B2)
       Virtual   (A1) (A1) (A1) (A1) (A1) (A1) (A1) (A1) (A1) (A1)
                 (A1) (A1) (A1) (A1) (A1) (A1) (A1) (A1) (A1) (A1)
                 (A1) (A1) (A1) (A1) (A1) (A1) (A1) (A1) (A1) (A1)
                 (A1) (A1) (A1) (A2) (A2) (A2) (A2) (A2) (A2) (A2)
                 (A2) (A2) (A2) (A2) (A2) (B1) (B1) (B1) (B1) (B1)
                 (B1) (B1) (B1) (B1) (B1) (B1) (B1) (B1) (B1) (B1)
                 (B1) (B1) (B1) (B1) (B2) (B2) (B2) (B2) (B2) (B2)
                 (B2) (B2) (B2) (B2) (B2) (B2) (B2) (B2) (B2) (B2)
                 (B2) (B2) (B2) (B2)
 ExpMin= 2.90D-02 ExpMax= 1.13D+05 ExpMxC= 1.70D+04 IAcc=3 IRadAn=         5 AccDes= 0.00D+00
 Harris functional with IExCor=  402 and IRadAn=       5 diagonalized for initial guess.
 HarFok:  IExCor=  402 AccDes= 0.00D+00 IRadAn=         5 IDoV= 1 UseB2=F ITyADJ=14
 ICtDFT=  3500011 ScaDFX=  1.000000  1.000000  1.000000  1.000000
 Defaulting to unpruned grid for atomic number  78.
 Defaulting to unpruned grid for atomic number  78.
 Defaulting to unpruned grid for atomic number  78.
 Defaulting to unpruned grid for atomic number  78.
 Defaulting to unpruned grid for atomic number  78.
 Defaulting to unpruned grid for atomic number  78.
 Defaulting to unpruned grid for atomic number  78.
 Defaulting to unpruned grid for atomic number  78.
 FoFCou: FMM=F IPFlag=           0 FMFlag=      100000 FMFlg1=           0
         NFxFlg=           0 DoJE=T BraDBF=F KetDBF=T FulRan=T
         wScrn=  0.000000 ICntrl=     500 IOpCl=  0 I1Cent=   200000004 NGrid=           0
         NMat0=    1 NMatS0=      1 NMatT0=    0 NMatD0=    1 NMtDS0=    0 NMtDT0=    0
 Petite list used in FoFCou.
 Keep R1 ints in memory in symmetry-blocked form, NReq=138921042.
 Requested convergence on RMS density matrix=1.00D-08 within 128 cycles.
 Requested convergence on MAX density matrix=1.00D-06.
 Requested convergence on             energy=1.00D-06.
 No special actions if energy rises.
 Defaulting to unpruned grid for atomic number  78.
 Defaulting to unpruned grid for atomic number  78.
 Defaulting to unpruned grid for atomic number  78.
 Defaulting to unpruned grid for atomic number  78.
 Defaulting to unpruned grid for atomic number  78.
 Defaulting to unpruned grid for atomic number  78.
 Defaulting to unpruned grid for atomic number  78.
 Defaulting to unpruned grid for atomic number  78.
 Inv3:  Mode=1 IEnd=     6518028.
 Iteration    1 A*A^-1 deviation from unit magnitude is 6.44D-15 for   1142.
 Iteration    1 A*A^-1 deviation from orthogonality  is 3.46D-15 for    901    421.
 Iteration    1 A^-1*A deviation from unit magnitude is 6.11D-15 for    125.
 Iteration    1 A^-1*A deviation from orthogonality  is 1.82D-15 for   1257     23.
 Error on total polarization charges =  0.01826
 SCF Done:  E(RB3LYP) =  -9221.47920522     A.U. after   10 cycles
            NFock= 10  Conv=0.47D-08     -V/T= 2.0103
   4 Symmetry operations used in ECPInt.
 ECPInt:  NShTT=    2346 NPrTT=   13080 LenC2=    2086 LenP2D=    7971.
 LDataN:  DoStor=T MaxTD1= 7 Len=  274
 D1PCM: PCM CHGder 1st derivatives, ID1Alg=3 FixD1E=F DoIter=F DoCFld=F I1PDM=0.
 Calling FoFJK, ICntrl=      2127 FMM=F ISym2X=1 I1Cent= 0 IOpClX= 0 NMat=1 NMatS=1 NMatT=0.
 Defaulting to unpruned grid for atomic number  78.
 Defaulting to unpruned grid for atomic number  78.
 Defaulting to unpruned grid for atomic number  78.
 Defaulting to unpruned grid for atomic number  78.
 Defaulting to unpruned grid for atomic number  78.
 Defaulting to unpruned grid for atomic number  78.
 Defaulting to unpruned grid for atomic number  78.
 Defaulting to unpruned grid for atomic number  78.
 ***** Axes restored to original set *****
 -------------------------------------------------------------------
 Center     Atomic                   Forces (Hartrees/Bohr)
 Number     Number              X              Y              Z
 -------------------------------------------------------------------
      1       78           0.000000000   -0.000791212    0.000000000
      2       35           0.000000000   -0.000171058   -0.002268969
      3       17          -0.001377267    0.000450729    0.000000000
      4       17           0.000000000    0.002038372    0.000000000
      5       35           0.000000000   -0.001806503    0.000000000
      6       17           0.001377267    0.000450729    0.000000000
      7       35           0.000000000   -0.000171058    0.002268969
 -------------------------------------------------------------------
 Cartesian Forces:  Max     0.002268969 RMS     0.001037383

 GradGradGradGradGradGradGradGradGradGradGradGradGradGradGradGradGradGrad
 Berny optimization.
 Using GEDIIS/GDIIS optimizer.
 FormGI is forming the generalized inverse of G from B-inverse, IUseBI=4.
 Internal  Forces:  Max     0.002268376 RMS     0.000852243
 Search for a local minimum.
 Step number   3 out of a maximum of   42
 All quantities printed in internal units (Hartrees-Bohrs-Radians)
 Mixed Optimization -- En-DIIS/RFO-DIIS
 Update second derivatives using D2CorX and points    1    2    3
 DE= -6.25D-03 DEPred=-4.02D-03 R= 1.55D+00
 TightC=F SS=  1.41D+00  RLast= 2.87D-01 DXNew= 8.4853D-01 8.6076D-01
 Trust test= 1.55D+00 RLast= 2.87D-01 DXMaxT set to 8.49D-01
 ITU=  1  1  0
 Use linear search instead of GDIIS.
     Eigenvalues ---    0.07780   0.08487   0.08496   0.09381   0.10138
     Eigenvalues ---    0.12300   0.12600   0.12630   0.19391   0.19509
     Eigenvalues ---    0.19523   0.20546   0.20977   0.22001   0.22027
 RFO step:  Lambda=-3.58110525D-05 EMin= 7.77973902D-02
 Quartic linear search produced a step of  0.14250.
 Iteration  1 RMS(Cart)=  0.00915372 RMS(Int)=  0.00001466
 Iteration  2 RMS(Cart)=  0.00002156 RMS(Int)=  0.00000460
 Iteration  3 RMS(Cart)=  0.00000000 RMS(Int)=  0.00000460
 ClnCor:  largest displacement from symmetrization is 8.22D-05 for atom     7.
 Variable       Old X    -DE/DX   Delta X   Delta X   Delta X     New X
                                 (Linear)    (Quad)   (Total)
    R1        4.82971   0.00227   0.01715   0.00350   0.02066   4.85036
    R2        4.55004   0.00138   0.01626  -0.00259   0.01366   4.56371
    R3        4.56501   0.00204   0.01782   0.00009   0.01791   4.58292
    R4        4.81219   0.00181   0.01527   0.00168   0.01696   4.82914
    R5        4.55004   0.00138   0.01626  -0.00259   0.01366   4.56371
    R6        4.82971   0.00227   0.01715   0.00350   0.02066   4.85036
    A1        1.57081   0.00000   0.00000  -0.00002  -0.00001   1.57079
    A2        1.56740   0.00012  -0.00025   0.00206   0.00181   1.56921
    A3        1.57419  -0.00012   0.00025  -0.00206  -0.00181   1.57238
    A4        1.57081   0.00000   0.00000  -0.00002  -0.00001   1.57079
    A5        1.57367  -0.00034   0.00048  -0.00478  -0.00430   1.56937
    A6        1.56792   0.00034  -0.00048   0.00478   0.00430   1.57222
    A7        1.57081   0.00000   0.00000  -0.00002  -0.00001   1.57079
    A8        1.57367  -0.00034   0.00048  -0.00478  -0.00430   1.56937
    A9        1.56740   0.00025  -0.00025   0.00209   0.00181   1.56921
   A10        1.56792   0.00034  -0.00048   0.00478   0.00430   1.57222
   A11        1.57419  -0.00025   0.00025  -0.00209  -0.00181   1.57238
   A12        1.57081   0.00000   0.00000  -0.00002  -0.00001   1.57079
   A13        3.14161   0.00000   0.00000  -0.00004  -0.00002   3.14159
   A14        3.14161   0.00000   0.00000  -0.00004  -0.00002   3.14159
   A15        3.14159   0.00000   0.00000   0.00000   0.00000   3.14159
   A16        3.14838  -0.00037   0.00051  -0.00415  -0.00362   3.14476
   A17        3.14735  -0.00069   0.00096  -0.00956  -0.00860   3.13875
   A18        3.14159   0.00000   0.00000   0.00000   0.00000   3.14159
    D1        1.57080   0.00000   0.00000   0.00000   0.00000   1.57080
    D2       -1.57080   0.00000   0.00000   0.00000   0.00000  -1.57080
    D3        1.56740   0.00012  -0.00025   0.00206   0.00181   1.56921
    D4       -1.57419   0.00012  -0.00025   0.00206   0.00181  -1.57238
    D5       -1.57367   0.00034  -0.00048   0.00478   0.00430  -1.56937
    D6        1.56792   0.00034  -0.00048   0.00478   0.00430   1.57222
    D7       -1.57367   0.00034  -0.00048   0.00478   0.00430  -1.56937
    D8        1.56792   0.00034  -0.00048   0.00478   0.00430   1.57222
         Item               Value     Threshold  Converged?
 Maximum Force            0.002268     0.000450     NO 
 RMS     Force            0.000852     0.000300     NO 
 Maximum Displacement     0.020677     0.001800     NO 
 RMS     Displacement     0.009157     0.001200     NO 
 Predicted change in Energy=-9.722633D-05
 GradGradGradGradGradGradGradGradGradGradGradGradGradGradGradGradGradGrad

                          Input orientation:                          
 ---------------------------------------------------------------------
 Center     Atomic      Atomic             Coordinates (Angstroms)
 Number     Number       Type             X           Y           Z
 ---------------------------------------------------------------------
      1         78           0       -0.319549    0.333404    0.000000
      2         35           0       -0.319549    0.337467   -2.566698
      3         17           0       -2.734556    0.336838    0.000000
      4         17           0       -0.319549    2.758583    0.000000
      5         35           0       -0.319549   -2.222068    0.000000
      6         17           0        2.095458    0.336838    0.000000
      7         35           0       -0.319549    0.337467    2.566698
 ---------------------------------------------------------------------
                    Distance matrix (angstroms):
                    1          2          3          4          5
     1  Pt   0.000000
     2  Br   2.566701   0.000000
     3  Cl   2.415009   3.524230   0.000000
     4  Cl   2.425179   3.528419   3.420103   0.000000
     5  Br   2.555472   3.624798   3.518560   4.980651   0.000000
     6  Cl   2.415009   3.524230   4.830013   3.420103   3.518560
     7  Br   2.566701   5.133396   3.524230   3.528419   3.624798
                    6          7
     6  Cl   0.000000
     7  Br   3.524230   0.000000
 Stoichiometry    Br3Cl3Pt(2-)
 Framework group  C2V[C2(BrPtCl),SGV(Br2),SGV'(Cl2)]
 Deg. of freedom     6
 Full point group                 C2V     NOp   4
 Largest Abelian subgroup         C2V     NOp   4
 Largest concise Abelian subgroup C2V     NOp   4
                         Standard orientation:                         
 ---------------------------------------------------------------------
 Center     Atomic      Atomic             Coordinates (Angstroms)
 Number     Number       Type             X           Y           Z
 ---------------------------------------------------------------------
      1         78           0        0.000000    0.000000    0.204326
      2         35           0        0.000000    2.566698    0.208389
      3         17           0       -2.415007    0.000000    0.207761
      4         17           0        0.000000    0.000000    2.629505
      5         35           0        0.000000    0.000000   -2.351146
      6         17           0        2.415007    0.000000    0.207761
      7         35           0        0.000000   -2.566698    0.208389
 ---------------------------------------------------------------------
 Rotational constants (GHZ):      0.4578251      0.3490879      0.2911517
 Basis read from rwf:  (5D, 7F)
 Pseudo-potential data read from rwf file.
 There are    79 symmetry adapted cartesian basis functions of A1  symmetry.
 There are    21 symmetry adapted cartesian basis functions of A2  symmetry.
 There are    40 symmetry adapted cartesian basis functions of B1  symmetry.
 There are    46 symmetry adapted cartesian basis functions of B2  symmetry.
 There are    69 symmetry adapted basis functions of A1  symmetry.
 There are    21 symmetry adapted basis functions of A2  symmetry.
 There are    39 symmetry adapted basis functions of B1  symmetry.
 There are    43 symmetry adapted basis functions of B2  symmetry.
   172 basis functions,   394 primitive gaussians,   186 cartesian basis functions
    88 alpha electrons       88 beta electrons
       nuclear repulsion energy      1974.1734774702 Hartrees.
 NAtoms=    7 NActive=    7 NUniq=    5 SFac= 1.96D+00 NAtFMM=   60 NAOKFM=F Big=F
 Integral buffers will be    131072 words long.
 Raffenetti 2 integral format.
 Two-electron integral symmetry is turned on.
 ------------------------------------------------------------------------------
 Polarizable Continuum Model (PCM)
 =================================
 Model                : PCM (using non-symmetric T matrix).
 Atomic radii         : UFF (Universal Force Field).
 Polarization charges : Total charges.
 Charge compensation  : None.
 Solution method      : On-the-fly selection.
 Cavity type          : Scaled VdW (van der Waals Surface) (Alpha=1.100).
 Cavity algorithm     : GePol (No added spheres)
                        Default sphere list used, NSphG=    7.
                        Lebedev-Laikov grids with approx.  5.0 points / Ang**2.
                        Smoothing algorithm: Karplus/York (Gamma=1.0000).
                        Polarization charges: spherical gaussians, with
                                              point-specific exponents (IZeta= 3).
                        Self-potential: point-specific (ISelfS= 7).
                        Self-field    : sphere-specific E.n sum rule (ISelfD= 2).
 1st derivatives      : Analytical E(r).r(x)/FMM algorithm (CHGder, D1EAlg=3).
                        Cavity 1st derivative terms included.
 Solvent              : Water, Eps=  78.355300 Eps(inf)=   1.777849
 ------------------------------------------------------------------------------
 Spheres list:
 ISph  on   Nord     Re0    Alpha      Xe            Ye            Ze
    1  Pt      1    1.3770  1.100      0.000000      0.000000      0.204326
    2  Br      2    2.0945  1.100      0.000000      2.566698      0.208389
    3  Cl      3    1.9735  1.100     -2.415007      0.000000      0.207761
    4  Cl      4    1.9735  1.100      0.000000      0.000000      2.629505
    5  Br      5    2.0945  1.100      0.000000      0.000000     -2.351146
    6  Cl      6    1.9735  1.100      2.415007      0.000000      0.207761
    7  Br      7    2.0945  1.100      0.000000     -2.566698      0.208389
 ------------------------------------------------------------------------------
 One-electron integrals computed using PRISM.
   4 Symmetry operations used in ECPInt.
 ECPInt:  NShTT=    2346 NPrTT=   13080 LenC2=    2082 LenP2D=    7954.
 LDataN:  DoStor=T MaxTD1= 6 Len=  172
 NBasis=   172 RedAO= T EigKep=  9.65D-03  NBF=    69    21    39    43
 NBsUse=   172 1.00D-06 EigRej= -1.00D+00 NBFU=    69    21    39    43
 Defaulting to unpruned grid for atomic number  78.
 Initial guess from the checkpoint file:  "/home/scr/diego/Gau-4989.chk"
 B after Tr=     0.000000    0.000000    0.000000
         Rot=    1.000000    0.000000    0.000000    0.000000 Ang=   0.00 deg.
 Initial guess orbital symmetries:
       Occupied  (A1) (B2) (A1) (A1) (B1) (A1) (A1) (B2) (A1) (A1)
                 (B2) (A1) (B2) (B1) (B1) (A1) (A2) (B2) (B1) (A1)
                 (A1) (A1) (B2) (A1) (B1) (A1) (A1) (B2) (A1) (A2)
                 (B1) (B1) (B2) (A1) (B2) (A1) (B2) (B1) (B1) (A2)
                 (A1) (B2) (A1) (A1) (B2) (A1) (B2) (B1) (A2) (B1)
                 (B2) (A1) (A2) (A1) (B1) (A2) (A1) (B2) (B1) (A1)
                 (B2) (A1) (B1) (A1) (A1) (A1) (B2) (A1) (A1) (A1)
                 (B1) (A2) (B2) (B1) (A1) (B2) (B2) (A1) (B1) (B1)
                 (B2) (A1) (A2) (B1) (B2) (B1) (A2) (B2)
       Virtual   (A1) (A1) (A1) (A1) (A1) (A1) (A1) (A1) (A1) (A1)
                 (A1) (A1) (A1) (A1) (A1) (A1) (A1) (A1) (A1) (A1)
                 (A1) (A1) (A1) (A1) (A1) (A1) (A1) (A1) (A1) (A1)
                 (A1) (A1) (A1) (A2) (A2) (A2) (A2) (A2) (A2) (A2)
                 (A2) (A2) (A2) (A2) (A2) (B1) (B1) (B1) (B1) (B1)
                 (B1) (B1) (B1) (B1) (B1) (B1) (B1) (B1) (B1) (B1)
                 (B1) (B1) (B1) (B1) (B2) (B2) (B2) (B2) (B2) (B2)
                 (B2) (B2) (B2) (B2) (B2) (B2) (B2) (B2) (B2) (B2)
                 (B2) (B2) (B2) (B2)
 ExpMin= 2.90D-02 ExpMax= 1.13D+05 ExpMxC= 1.70D+04 IAcc=3 IRadAn=         5 AccDes= 0.00D+00
 Harris functional with IExCor=  402 and IRadAn=       5 diagonalized for initial guess.
 HarFok:  IExCor=  402 AccDes= 0.00D+00 IRadAn=         5 IDoV= 1 UseB2=F ITyADJ=14
 ICtDFT=  3500011 ScaDFX=  1.000000  1.000000  1.000000  1.000000
 Defaulting to unpruned grid for atomic number  78.
 Defaulting to unpruned grid for atomic number  78.
 Defaulting to unpruned grid for atomic number  78.
 Defaulting to unpruned grid for atomic number  78.
 Defaulting to unpruned grid for atomic number  78.
 Defaulting to unpruned grid for atomic number  78.
 Defaulting to unpruned grid for atomic number  78.
 Defaulting to unpruned grid for atomic number  78.
 FoFCou: FMM=F IPFlag=           0 FMFlag=      100000 FMFlg1=           0
         NFxFlg=           0 DoJE=T BraDBF=F KetDBF=T FulRan=T
         wScrn=  0.000000 ICntrl=     500 IOpCl=  0 I1Cent=   200000004 NGrid=           0
         NMat0=    1 NMatS0=      1 NMatT0=    0 NMatD0=    1 NMtDS0=    0 NMtDT0=    0
 Petite list used in FoFCou.
 Keep R1 ints in memory in symmetry-blocked form, NReq=138921042.
 Requested convergence on RMS density matrix=1.00D-08 within 128 cycles.
 Requested convergence on MAX density matrix=1.00D-06.
 Requested convergence on             energy=1.00D-06.
 No special actions if energy rises.
 Defaulting to unpruned grid for atomic number  78.
 Defaulting to unpruned grid for atomic number  78.
 Defaulting to unpruned grid for atomic number  78.
 Defaulting to unpruned grid for atomic number  78.
 Defaulting to unpruned grid for atomic number  78.
 Defaulting to unpruned grid for atomic number  78.
 Defaulting to unpruned grid for atomic number  78.
 Defaulting to unpruned grid for atomic number  78.
 Inv3:  Mode=1 IEnd=     6553452.
 Iteration    1 A*A^-1 deviation from unit magnitude is 8.77D-15 for    196.
 Iteration    1 A*A^-1 deviation from orthogonality  is 3.14D-15 for   1283    374.
 Iteration    1 A^-1*A deviation from unit magnitude is 6.77D-15 for    111.
 Iteration    1 A^-1*A deviation from orthogonality  is 1.50D-15 for   1443   1262.
 Error on total polarization charges =  0.01815
 SCF Done:  E(RB3LYP) =  -9221.47930600     A.U. after    9 cycles
            NFock=  9  Conv=0.40D-08     -V/T= 2.0103
   4 Symmetry operations used in ECPInt.
 ECPInt:  NShTT=    2346 NPrTT=   13080 LenC2=    2082 LenP2D=    7954.
 LDataN:  DoStor=T MaxTD1= 7 Len=  274
 D1PCM: PCM CHGder 1st derivatives, ID1Alg=3 FixD1E=F DoIter=F DoCFld=F I1PDM=0.
 Calling FoFJK, ICntrl=      2127 FMM=F ISym2X=1 I1Cent= 0 IOpClX= 0 NMat=1 NMatS=1 NMatT=0.
 Defaulting to unpruned grid for atomic number  78.
 Defaulting to unpruned grid for atomic number  78.
 Defaulting to unpruned grid for atomic number  78.
 Defaulting to unpruned grid for atomic number  78.
 Defaulting to unpruned grid for atomic number  78.
 Defaulting to unpruned grid for atomic number  78.
 Defaulting to unpruned grid for atomic number  78.
 Defaulting to unpruned grid for atomic number  78.
 ***** Axes restored to original set *****
 -------------------------------------------------------------------
 Center     Atomic                   Forces (Hartrees/Bohr)
 Number     Number              X              Y              Z
 -------------------------------------------------------------------
      1       78           0.000000000    0.000012105    0.000000000
      2       35           0.000000000   -0.000039243   -0.000120388
      3       17           0.000423480   -0.000031925    0.000000000
      4       17           0.000000000   -0.000152895    0.000000000
      5       35           0.000000000    0.000283124    0.000000000
      6       17          -0.000423480   -0.000031925    0.000000000
      7       35           0.000000000   -0.000039243    0.000120388
 -------------------------------------------------------------------
 Cartesian Forces:  Max     0.000423480 RMS     0.000153756

 GradGradGradGradGradGradGradGradGradGradGradGradGradGradGradGradGradGrad
 Berny optimization.
 Using GEDIIS/GDIIS optimizer.
 FormGI is forming the generalized inverse of G from B-inverse, IUseBI=4.
 Internal  Forces:  Max     0.000423525 RMS     0.000126704
 Search for a local minimum.
 Step number   4 out of a maximum of   42
 All quantities printed in internal units (Hartrees-Bohrs-Radians)
 Mixed Optimization -- En-DIIS/RFO-DIIS
 Swapping is turned off.
 Update second derivatives using D2CorX and points    2    3    4
 DE= -1.01D-04 DEPred=-9.72D-05 R= 1.04D+00
 TightC=F SS=  1.41D+00  RLast= 4.57D-02 DXNew= 1.4270D+00 1.3714D-01
 Trust test= 1.04D+00 RLast= 4.57D-02 DXMaxT set to 8.49D-01
 ITU=  1  1  1  0
     Eigenvalues ---    0.07780   0.08487   0.08625   0.09313   0.10138
     Eigenvalues ---    0.11556   0.12608   0.12622   0.19386   0.19509
     Eigenvalues ---    0.19594   0.20546   0.21166   0.22001   0.22046
 En-DIIS/RFO-DIIS IScMMF=        0 using points:     4    3
 RFO step:  Lambda=-1.18743625D-06.
 DidBck=F Rises=F RFO-DIIS coefs:    0.93728    0.06272
 Iteration  1 RMS(Cart)=  0.00077699 RMS(Int)=  0.00000033
 Iteration  2 RMS(Cart)=  0.00000016 RMS(Int)=  0.00000031
 ClnCor:  largest displacement from symmetrization is 9.82D-06 for atom     7.
 Variable       Old X    -DE/DX   Delta X   Delta X   Delta X     New X
                                 (Linear)    (Quad)   (Total)
    R1        4.85036   0.00012  -0.00130   0.00136   0.00006   4.85042
    R2        4.56371  -0.00042  -0.00086  -0.00137  -0.00223   4.56148
    R3        4.58292  -0.00015  -0.00112  -0.00002  -0.00115   4.58178
    R4        4.82914  -0.00028  -0.00106  -0.00073  -0.00179   4.82735
    R5        4.56371  -0.00042  -0.00086  -0.00137  -0.00223   4.56148
    R6        4.85036   0.00012  -0.00130   0.00136   0.00006   4.85042
    A1        1.57079   0.00000   0.00000   0.00000   0.00000   1.57079
    A2        1.56921   0.00003  -0.00011   0.00046   0.00035   1.56957
    A3        1.57238  -0.00003   0.00011  -0.00046  -0.00035   1.57203
    A4        1.57079   0.00000   0.00000   0.00000   0.00000   1.57079
[...]
     6  17     0.01   0.00   0.66     0.00   0.58   0.00    -0.14   0.00   0.42
     7  35     0.00   0.05   0.03     0.00  -0.27  -0.06     0.04   0.00   0.00
                     10                     11                     12
                     A1                     A1                     B2
 Frequencies --    169.0479               196.6817               210.2762
 Red. masses --     77.2183                82.2138               109.9533
 Frc consts  --      1.3001                 1.8738                 2.8644
 IR Inten    --      0.0616                 9.5070                58.3107
  Atom  AN      X      Y      Z        X      Y      Z        X      Y      Z
     1  78     0.00   0.00  -0.09     0.00   0.00   0.33     0.00   0.57   0.00
     2  35     0.00   0.67   0.03     0.00   0.17  -0.06     0.00  -0.51   0.00
     3  17     0.04   0.00   0.11     0.09   0.00  -0.12     0.00  -0.22   0.00
     4  17     0.00   0.00  -0.18     0.00   0.00   0.42     0.00  -0.21   0.00
     5  35     0.00   0.00   0.14     0.00   0.00  -0.78     0.00  -0.08   0.00
     6  17    -0.04   0.00   0.11    -0.09   0.00  -0.12     0.00  -0.22   0.00
     7  35     0.00  -0.67   0.03     0.00  -0.17  -0.06     0.00  -0.51   0.00
                     13                     14                     15
                     A1                     A1                     B1
 Frequencies --    282.5636               297.1064               302.8521
 Red. masses --     39.2993                36.9969                46.0262
 Frc consts  --      1.8487                 1.9242                 2.4872
 IR Inten    --     46.9934                29.3522                95.7118
  Atom  AN      X      Y      Z        X      Y      Z        X      Y      Z
     1  78     0.00   0.00  -0.16     0.00   0.00   0.11     0.26   0.00   0.00
     2  35     0.00   0.00   0.01     0.00  -0.03   0.00    -0.01   0.00   0.00
     3  17     0.47   0.00   0.04     0.56   0.00  -0.02    -0.68   0.00   0.00
     4  17     0.00   0.00   0.72     0.00   0.00  -0.60    -0.04   0.00   0.00
     5  35     0.00   0.00   0.04     0.00   0.00   0.02    -0.01   0.00   0.00
     6  17    -0.47   0.00   0.04    -0.56   0.00  -0.02    -0.68   0.00   0.00
     7  35     0.00   0.00   0.01     0.00   0.03   0.00    -0.01   0.00   0.00

 -------------------
 - Thermochemistry -
 -------------------
 Temperature   298.150 Kelvin.  Pressure   1.00000 Atm.
 Atom     1 has atomic number 78 and mass 194.96480
 Atom     2 has atomic number 35 and mass  78.91834
 Atom     3 has atomic number 17 and mass  34.96885
 Atom     4 has atomic number 17 and mass  34.96885
 Atom     5 has atomic number 35 and mass  78.91834
 Atom     6 has atomic number 17 and mass  34.96885
 Atom     7 has atomic number 35 and mass  78.91834
 Molecular mass:   536.62637 amu.
 Principal axes and moments of inertia in atomic units:
                           1         2         3
     Eigenvalues --  3936.324405170.082216198.14673
           X            0.00000   0.00000   1.00000
           Y            1.00000   0.00000   0.00000
           Z            0.00000   1.00000   0.00000
 This molecule is an asymmetric top.
 Rotational symmetry number  2.
 Warning -- assumption of classical behavior for rotation
           may cause significant error
 Rotational temperatures (Kelvin)      0.02200     0.01675     0.01397
 Rotational constants (GHZ):           0.45848     0.34907     0.29117
 Zero-point vibrational energy      14153.3 (Joules/Mol)
                                    3.38272 (Kcal/Mol)
 Warning -- explicit consideration of  15 degrees of freedom as
           vibrations may cause significant error
 Vibrational temperatures:     76.49   103.82   110.84   121.21   148.72
          (Kelvin)            156.19   194.11   195.30   199.32   243.22
                              282.98   302.54   406.55   427.47   435.74
 
 Zero-point correction=                           0.005391 (Hartree/Particle)
 Thermal correction to Energy=                    0.017838
 Thermal correction to Enthalpy=                  0.018783
 Thermal correction to Gibbs Free Energy=        -0.037921
 Sum of electronic and zero-point Energies=          -9221.473918
 Sum of electronic and thermal Energies=             -9221.461470
 Sum of electronic and thermal Enthalpies=           -9221.460526
 Sum of electronic and thermal Free Energies=        -9221.517230
 
                     E (Thermal)             CV                S
                      KCal/Mol        Cal/Mol-Kelvin    Cal/Mol-Kelvin
 Total                   11.194             34.073            119.343
 Electronic               0.000              0.000              0.000
 Translational            0.889              2.981             44.726
 Rotational               0.889              2.981             31.823
 Vibrational              9.416             28.112             42.794
 Vibration     1          0.596              1.976              4.696
 Vibration     2          0.598              1.967              4.094
 Vibration     3          0.599              1.964              3.965
 Vibration     4          0.601              1.960              3.789
 Vibration     5          0.605              1.947              3.390
 Vibration     6          0.606              1.942              3.295
 Vibration     7          0.613              1.918              2.875
 Vibration     8          0.614              1.918              2.863
 Vibration     9          0.614              1.915              2.824
 Vibration    10          0.625              1.881              2.446
 Vibration    11          0.636              1.845              2.164
 Vibration    12          0.642              1.825              2.041
 Vibration    13          0.682              1.706              1.518
 Vibration    14          0.691              1.679              1.433
 Vibration    15          0.694              1.668              1.401
                       Q            Log10(Q)             Ln(Q)
 Total Bot       0.276951D+18         17.442403         40.162617
 Total V=0       0.835506D+20         19.921950         45.871984
 Vib (Bot)       0.281967D+03          2.450198          5.641790
 Vib (Bot)    1  0.388724D+01          0.589642          1.357700
 Vib (Bot)    2  0.285736D+01          0.455966          1.049900
 Vib (Bot)    3  0.267440D+01          0.427227          0.983726
 Vib (Bot)    4  0.244284D+01          0.387895          0.893161
 Vib (Bot)    5  0.198415D+01          0.297574          0.685191
 Vib (Bot)    6  0.188724D+01          0.275828          0.635116
 Vib (Bot)    7  0.150918D+01          0.178742          0.411568
 Vib (Bot)    8  0.149970D+01          0.176005          0.405266
 Vib (Bot)    9  0.146834D+01          0.166828          0.384136
 Vib (Bot)   10  0.119249D+01          0.076456          0.176046
 Vib (Bot)   11  0.101507D+01          0.006497          0.014961
 Vib (Bot)   12  0.944445D+00         -0.024823         -0.057158
 Vib (Bot)   13  0.679496D+00         -0.167813         -0.386404
 Vib (Bot)   14  0.641135D+00         -0.193050         -0.444515
 Vib (Bot)   15  0.626941D+00         -0.202773         -0.466903
 Vib (V=0)       0.850638D+05          4.929745         11.351157
 Vib (V=0)    1  0.441927D+01          0.645350          1.485974
 Vib (V=0)    2  0.340078D+01          0.531579          1.224005
 Vib (V=0)    3  0.322074D+01          0.507956          1.169611
 Vib (V=0)    4  0.299348D+01          0.476177          1.096438
 Vib (V=0)    5  0.254618D+01          0.405889          0.934594
 Vib (V=0)    6  0.245235D+01          0.389583          0.897048
 Vib (V=0)    7  0.208985D+01          0.320116          0.737093
 Vib (V=0)    8  0.208085D+01          0.318242          0.732779
 Vib (V=0)    9  0.205114D+01          0.311995          0.718396
 Vib (V=0)   10  0.179307D+01          0.253598          0.583931
 Vib (V=0)   11  0.163154D+01          0.212597          0.489522
 Vib (V=0)   12  0.156863D+01          0.195521          0.450204
 Vib (V=0)   13  0.134363D+01          0.128280          0.295376
 Vib (V=0)   14  0.131305D+01          0.118282          0.272354
 Vib (V=0)   15  0.130191D+01          0.114580          0.263830
 Electronic      0.100000D+01          0.000000          0.000000
 Translational   0.488611D+09          8.688963         20.007077
 Rotational      0.201021D+07          6.303242         14.513750
 ***** Axes restored to original set *****
 -------------------------------------------------------------------
 Center     Atomic                   Forces (Hartrees/Bohr)
 Number     Number              X              Y              Z
 -------------------------------------------------------------------
      1       78           0.000000000   -0.000046718    0.000000000
      2       35           0.000000000    0.000004826   -0.000018397
      3       17          -0.000012762    0.000001834    0.000000000
      4       17           0.000000000    0.000008342    0.000000000
      5       35           0.000000000    0.000025054    0.000000000
      6       17           0.000012762    0.000001834    0.000000000
      7       35           0.000000000    0.000004826    0.000018397
 -------------------------------------------------------------------
 Cartesian Forces:  Max     0.000046718 RMS     0.000013690
 FormGI is forming the generalized inverse of G from B-inverse, IUseBI=4.

 GradGradGradGradGradGradGradGradGradGradGradGradGradGradGradGradGradGrad
 Berny optimization.
 Internal  Forces:  Max     0.000025054 RMS     0.000007820
 Search for a local minimum.
 Step number   1 out of a maximum of    2
 All quantities printed in internal units (Hartrees-Bohrs-Radians)
 Second derivative matrix not updated -- analytic derivatives used.
 ITU=  0
     Eigenvalues ---    0.01743   0.03902   0.05218   0.05577   0.06460
     Eigenvalues ---    0.06579   0.06699   0.07485   0.08240   0.08421
     Eigenvalues ---    0.08870   0.09393   0.09900   0.10433   0.11854
 Angle between quadratic step and forces=  11.35 degrees.
 Linear search not attempted -- first point.
 Iteration  1 RMS(Cart)=  0.00008322 RMS(Int)=  0.00000000
 Iteration  2 RMS(Cart)=  0.00000000 RMS(Int)=  0.00000000
 ClnCor:  largest displacement from symmetrization is 4.18D-09 for atom     5.
 Variable       Old X    -DE/DX   Delta X   Delta X   Delta X     New X
                                 (Linear)    (Quad)   (Total)
    R1        4.85212   0.00002   0.00000   0.00021   0.00021   4.85233
    R2        4.55980   0.00001   0.00000   0.00011   0.00011   4.55991
    R3        4.58169   0.00001   0.00000   0.00011   0.00011   4.58180
    R4        4.82607  -0.00003   0.00000  -0.00036  -0.00036   4.82571
    R5        4.55980   0.00001   0.00000   0.00011   0.00011   4.55991
    R6        4.85212   0.00002   0.00000   0.00021   0.00021   4.85233
    A1        1.57080   0.00000   0.00000   0.00000   0.00000   1.57080
    A2        1.57002   0.00000   0.00000  -0.00006  -0.00006   1.56996
    A3        1.57157   0.00000   0.00000   0.00006   0.00006   1.57163
    A4        1.57080   0.00000   0.00000   0.00000   0.00000   1.57080
    A5        1.56970   0.00000   0.00000  -0.00003  -0.00003   1.56967
    A6        1.57189   0.00000   0.00000   0.00003   0.00003   1.57192
    A7        1.57080   0.00000   0.00000   0.00000   0.00000   1.57080
    A8        1.56970   0.00000   0.00000  -0.00003  -0.00003   1.56967
    A9        1.57002  -0.00001   0.00000  -0.00006  -0.00006   1.56996
   A10        1.57189   0.00000   0.00000   0.00003   0.00003   1.57192
   A11        1.57157   0.00001   0.00000   0.00006   0.00006   1.57163
   A12        1.57080   0.00000   0.00000   0.00000   0.00000   1.57080
   A13        3.14159   0.00000   0.00000   0.00000   0.00000   3.14159
   A14        3.14159   0.00000   0.00000   0.00000   0.00000   3.14159
   A15        3.14159   0.00000   0.00000   0.00000   0.00000   3.14159
   A16        3.14314   0.00001   0.00000   0.00013   0.00013   3.14327
   A17        3.13940   0.00000   0.00000  -0.00005  -0.00005   3.13935
   A18        3.14159   0.00000   0.00000   0.00000   0.00000   3.14159
    D1        1.57080   0.00000   0.00000   0.00000   0.00000   1.57080
    D2       -1.57080   0.00000   0.00000   0.00000   0.00000  -1.57080
    D3        1.57002   0.00000   0.00000  -0.00006  -0.00006   1.56996
    D4       -1.57157   0.00000   0.00000  -0.00006  -0.00006  -1.57163
    D5       -1.56970   0.00000   0.00000   0.00003   0.00003  -1.56967
    D6        1.57189   0.00000   0.00000   0.00003   0.00003   1.57192
    D7       -1.56970   0.00000   0.00000   0.00003   0.00003  -1.56967
    D8        1.57189   0.00000   0.00000   0.00003   0.00003   1.57192
         Item               Value     Threshold  Converged?
 Maximum Force            0.000025     0.000450     YES
 RMS     Force            0.000008     0.000300     YES
 Maximum Displacement     0.000214     0.001800     YES
 RMS     Displacement     0.000083     0.001200     YES
 Predicted change in Energy=-1.205005D-08
 Optimization completed.
    -- Stationary point found.
                           ----------------------------
                           !   Optimized Parameters   !
                           ! (Angstroms and Degrees)  !
 --------------------------                            --------------------------
 ! Name  Definition              Value          Derivative Info.                !
 --------------------------------------------------------------------------------
 ! R1    R(1,2)                  2.5676         -DE/DX =    0.0                 !
 ! R2    R(1,3)                  2.4129         -DE/DX =    0.0                 !
 ! R3    R(1,4)                  2.4245         -DE/DX =    0.0                 !
 ! R4    R(1,5)                  2.5538         -DE/DX =    0.0                 !
 ! R5    R(1,6)                  2.4129         -DE/DX =    0.0                 !
 ! R6    R(1,7)                  2.5676         -DE/DX =    0.0                 !
 ! A1    A(2,1,3)               90.0            -DE/DX =    0.0                 !
 ! A2    A(2,1,4)               89.9556         -DE/DX =    0.0                 !
 ! A3    A(2,1,5)               90.0444         -DE/DX =    0.0                 !
 ! A4    A(2,1,6)               90.0            -DE/DX =    0.0                 !
 ! A5    A(3,1,4)               89.9372         -DE/DX =    0.0                 !
 ! A6    A(3,1,5)               90.0628         -DE/DX =    0.0                 !
 ! A7    A(3,1,7)               90.0            -DE/DX =    0.0                 !
 ! A8    A(4,1,6)               89.9372         -DE/DX =    0.0                 !
 ! A9    A(4,1,7)               89.9556         -DE/DX =    0.0                 !
 ! A10   A(5,1,6)               90.0628         -DE/DX =    0.0                 !
 ! A11   A(5,1,7)               90.0444         -DE/DX =    0.0                 !
 ! A12   A(6,1,7)               90.0            -DE/DX =    0.0                 !
 ! A13   L(2,1,7,3,-1)         179.9999         -DE/DX =    0.0                 !
 ! A14   L(3,1,6,2,-1)         179.9999         -DE/DX =    0.0                 !
 ! A15   L(4,1,5,2,-1)         180.0            -DE/DX =    0.0                 !
 ! A16   L(2,1,7,3,-2)         180.0888         -DE/DX =    0.0                 !
 ! A17   L(3,1,6,2,-2)         179.8745         -DE/DX =    0.0                 !
 ! A18   L(4,1,5,2,-2)         180.0            -DE/DX =    0.0                 !
 ! D1    D(2,1,4,3)             90.0            -DE/DX =    0.0                 !
 ! D2    D(2,1,5,3)            -90.0            -DE/DX =    0.0                 !
 ! D3    D(2,1,6,4)             89.9556         -DE/DX =    0.0                 !
 ! D4    D(2,1,6,5)            -90.0444         -DE/DX =    0.0                 !
 ! D5    D(3,1,7,4)            -89.9372         -DE/DX =    0.0                 !
 ! D6    D(3,1,7,5)             90.0628         -DE/DX =    0.0                 !
 ! D7    D(4,1,7,6)            -89.9372         -DE/DX =    0.0                 !
 ! D8    D(5,1,7,6)             90.0628         -DE/DX =    0.0                 !
 --------------------------------------------------------------------------------
 GradGradGradGradGradGradGradGradGradGradGradGradGradGradGradGradGradGrad

 1\1\GINC-NEQC17\Freq\RB3LYP\Gen\Br3Cl3Pt1(2-)\DIEGO\18-Aug-2021\0\\#N 
 Geom=AllCheck Guess=TCheck SCRF=Check GenChk RB3LYP/ChkBas Freq\\Estru
 tura 22\\-2,1\Pt,-0.31954889,0.3340839379,0.\Br,-0.31954889,0.33607459
 08,-2.5676287901\Cl,-2.7324918121,0.336727044,0.\Cl,-0.31954889,2.7586
 073045,0.\Br,-0.31954889,-2.2197616088,0.\Cl,2.0933940321,0.336727044,
 0.\Br,-0.31954889,0.3360745908,2.5676287901\\Version=EM64L-G09RevD.01\
 State=1-A1\HF=-9221.4793086\RMSD=2.726e-09\RMSF=1.369e-05\ZeroPoint=0.
 0053907\Thermal=0.0178385\Dipole=0.,-0.8106258,0.\DipoleDeriv=1.216341
 1,0.,0.,0.,1.3853604,0.,0.,0.,1.569468,-0.1452317,0.,0.,0.,-0.1389996,
 0.0212897,0.,0.001249,-1.5382694,-1.3174689,0.0069008,0.,0.0262572,-0.
 1388988,0.,0.,0.,-0.1240056,-0.1635985,0.,0.,0.,-1.5233576,0.,0.,0.,-0
 .1411949,-0.1273414,0.,0.,0.,-1.3062059,0.,0.,0.,-0.1037232,-1.3174689
 ,-0.0069008,0.,-0.0262572,-0.1388988,0.,0.,0.,-0.1240056,-0.1452317,0.
 ,0.,0.,-0.1389996,-0.0212897,0.,-0.0012489,-1.5382694\Polar=180.529725
 6,0.0000002,209.3370326,0.,-0.0000002,245.3903246\PG=C02V [C2(Br1Pt1Cl
 1),SGV(Br2),SGV'(Cl2)]\NImag=0\\0.22990989,0.,0.21148783,0.,0.,0.19169
 853,-0.01381481,0.,0.,0.00848648,0.,-0.01395094,0.00014037,0.,0.010656
 19,0.,0.00028552,-0.06202804,0.,-0.00104045,0.07635552,-0.08514485,0.0
 0026680,0.,-0.00127010,0.00003212,0.00326569,0.10022092,0.00062938,-0.
 01808736,0.,0.00018493,0.00000772,-0.00049153,0.00079693,0.01605328,0.
 ,0.,-0.01786806,0.00546439,0.00001838,-0.00182147,0.,0.,0.01366415,-0.
 01717718,0.,0.,-0.00011639,0.,0.,-0.00002451,-0.00759375,0.,0.01404436
 ,0.,-0.08038837,0.,0.,-0.00133000,-0.00347400,-0.00421246,0.00033659,0
 .,0.,0.09357780,0.,0.,-0.01673901,0.,-0.00542990,-0.00110939,0.,0.,0.0
 0351610,0.,0.,0.00844951,-0.01481339,0.,0.,0.00509058,0.,0.,-0.0009705
 8,0.00565214,0.,0.00341460,0.,0.,0.00315878,0.,-0.06702285,0.,0.,0.001
 67259,0.00531837,0.00322991,-0.00235418,0.,0.,-0.01120261,0.,0.,0.0795
 8863,0.,0.,-0.01516732,0.,0.00618683,0.00157461,0.,0.,0.00026732,0.,0.
 ,0.00347608,0.,0.,0.00800739,-0.08514485,-0.00026680,0.,-0.00127010,-0
 .00003212,-0.00326569,-0.01154078,0.00014543,0.,-0.00002451,0.00421246
 ,0.,-0.00097058,-0.00322991,0.,0.10022092,-0.00062938,-0.01808736,0.,-
 0.00018493,0.00000772,-0.00049153,-0.00014543,0.00403624,0.,0.00759375
 ,0.00033659,0.,-0.00565214,-0.00235418,0.,-0.00079693,0.01605328,0.,0.
 ,-0.01786806,-0.00546439,0.00001838,-0.00182147,0.,0.,0.00406344,0.,0.
 ,0.00351610,0.,0.,0.00026732,0.,0.,0.01366415,-0.01381481,0.,0.,0.0028
 9435,0.,0.,-0.00127010,0.00018493,-0.00546439,-0.00011639,0.,0.,0.0050
 9058,0.,0.,-0.00127010,-0.00018493,0.00546439,0.00848648,0.,-0.0139509
 4,-0.00014037,0.,0.00293673,-0.00010639,0.00003212,0.00000772,-0.00001
 838,0.,-0.00133000,0.00542990,0.,0.00167259,-0.00618683,-0.00003212,0.
 00000772,-0.00001838,0.,0.01065619,0.,-0.00028552,-0.06202804,0.,0.000
 10639,-0.01114976,-0.00326569,0.00049153,-0.00182147,0.,0.00347400,-0.
 00110939,0.,-0.00531837,0.00157461,0.00326569,0.00049153,-0.00182147,0
 .,0.00104045,0.07635552\\0.,0.00004672,0.,0.,-0.00000483,0.00001840,0.
 00001276,-0.00000183,0.,0.,-0.00000834,0.,0.,-0.00002505,0.,-0.0000127
 6,-0.00000183,0.,0.,-0.00000483,-0.00001840\\\@


 MY DESCRIPTION OF EXPERIENCE IS NOT WHAT HAPPENS
 TO A MAN.  EXPERIENCE IS WHAT A MAN DOES WITH WHAT
 HAPPENS TO HIM.
                         - CHUCK KNOX, SEATTLE SEAHAWKS, 1985
 Job cpu time:       0 days  0 hours  6 minutes 18.4 seconds.
 File lengths (MBytes):  RWF=     85 Int=      0 D2E=      0 Chk=      6 Scr=      1
 Normal termination of Gaussian 09 at Wed Aug 18 03:27:22 2021.
