 Entering Gaussian System, Link 0=g09
 Input=estrutura24_D2O.com
 Output=estrutura24_D2O.log
 Initial command:
 /home/scr/programs/g09/l1.exe "/home/scr/diego/Gau-6312.inp" -scrdir="/home/scr/diego/"
 Entering Link 1 = /home/scr/programs/g09/l1.exe PID=      6314.
  
 Copyright (c) 1988,1990,1992,1993,1995,1998,2003,2009,2013,
            Gaussian, Inc.  All Rights Reserved.
  
 This is part of the Gaussian(R) 09 program.  It is based on
 the Gaussian(R) 03 system (copyright 2003, Gaussian, Inc.),
 the Gaussian(R) 98 system (copyright 1998, Gaussian, Inc.),
 the Gaussian(R) 94 system (copyright 1995, Gaussian, Inc.),
 the Gaussian 92(TM) system (copyright 1992, Gaussian, Inc.),
 the Gaussian 90(TM) system (copyright 1990, Gaussian, Inc.),
 the Gaussian 88(TM) system (copyright 1988, Gaussian, Inc.),
 the Gaussian 86(TM) system (copyright 1986, Carnegie Mellon
 University), and the Gaussian 82(TM) system (copyright 1983,
 Carnegie Mellon University). Gaussian is a federally registered
 trademark of Gaussian, Inc.
  
 This software contains proprietary and confidential information,
 including trade secrets, belonging to Gaussian, Inc.
  
 This software is provided under written license and may be
 used, copied, transmitted, or stored only in accord with that
 written license.
  
 The following legend is applicable only to US Government
 contracts under FAR:
  
                    RESTRICTED RIGHTS LEGEND
  
 Use, reproduction and disclosure by the US Government is
 subject to restrictions as set forth in subparagraphs (a)
 and (c) of the Commercial Computer Software - Restricted
 Rights clause in FAR 52.227-19.
  
 Gaussian, Inc.
 340 Quinnipiac St., Bldg. 40, Wallingford CT 06492
  
  
 ---------------------------------------------------------------
 Warning -- This program may not be used in any manner that
 competes with the business of Gaussian, Inc. or will provide
 assistance to any competitor of Gaussian, Inc.  The licensee
 of this program is prohibited from giving any competitor of
 Gaussian, Inc. access to this program.  By using this program,
 the user acknowledges that Gaussian, Inc. is engaged in the
 business of creating and licensing software in the field of
 computational chemistry and represents and warrants to the
 licensee that it is not a competitor of Gaussian, Inc. and that
 it will not use this program in any manner prohibited above.
 ---------------------------------------------------------------
  

 Cite this work as:
 Gaussian 09, Revision D.01,
 M. J. Frisch, G. W. Trucks, H. B. Schlegel, G. E. Scuseria, 
 M. A. Robb, J. R. Cheeseman, G. Scalmani, V. Barone, B. Mennucci, 
 G. A. Petersson, H. Nakatsuji, M. Caricato, X. Li, H. P. Hratchian, 
 A. F. Izmaylov, J. Bloino, G. Zheng, J. L. Sonnenberg, M. Hada, 
 M. Ehara, K. Toyota, R. Fukuda, J. Hasegawa, M. Ishida, T. Nakajima, 
 Y. Honda, O. Kitao, H. Nakai, T. Vreven, J. A. Montgomery, Jr., 
 J. E. Peralta, F. Ogliaro, M. Bearpark, J. J. Heyd, E. Brothers, 
 K. N. Kudin, V. N. Staroverov, T. Keith, R. Kobayashi, J. Normand, 
 K. Raghavachari, A. Rendell, J. C. Burant, S. S. Iyengar, J. Tomasi, 
 M. Cossi, N. Rega, J. M. Millam, M. Klene, J. E. Knox, J. B. Cross, 
 V. Bakken, C. Adamo, J. Jaramillo, R. Gomperts, R. E. Stratmann, 
 O. Yazyev, A. J. Austin, R. Cammi, C. Pomelli, J. W. Ochterski, 
 R. L. Martin, K. Morokuma, V. G. Zakrzewski, G. A. Voth, 
 P. Salvador, J. J. Dannenberg, S. Dapprich, A. D. Daniels, 
 O. Farkas, J. B. Foresman, J. V. Ortiz, J. Cioslowski, 
 and D. J. Fox, Gaussian, Inc., Wallingford CT, 2013.
 
 ******************************************
 Gaussian 09:  EM64L-G09RevD.01 24-Apr-2013
                18-Aug-2021 
 ******************************************
 %mem=15gb
 %nproc=8
 Will use up to    8 processors via shared memory.
 ------------------------------------------------------------
 #b3lyp/gen pseudo=read opt freq=noraman scrf=(solvent=water)
 ------------------------------------------------------------
 1/14=-1,18=20,19=15,26=3,38=1/1,3;
 2/9=110,12=2,17=6,18=5,40=1/2;
 3/5=7,11=2,16=1,17=8,25=1,30=1,70=2201,71=1,72=1,74=-5/1,2,3;
 4//1;
 5/5=2,38=5,53=1/2;
 6/7=2,8=2,9=2,10=2,28=1/1;
 7//1,2,3,16;
 1/14=-1,18=20,19=15,26=3/3(2);
 2/9=110/2;
 99//99;
 2/9=110/2;
 3/5=7,6=1,11=2,16=1,17=8,25=1,30=1,70=2205,71=1,72=1,74=-5,82=7/1,2,3;
 4/5=5,16=3,69=1/1;
 5/5=2,38=5,53=1/2;
 7//1,2,3,16;
 1/14=-1,18=20,19=15,26=3/3(-5);
 2/9=110/2;
 6/7=2,8=2,9=2,10=2,19=2,28=1/1;
 99/9=1/99;
 ------------
 Estrutura 24
 ------------
 Symbolic Z-matrix:
 Charge = -2 Multiplicity = 1
 Pt                   -0.31955   0.33835   0. 
 Br                   -0.31955  -2.09165   0. 
 Br                    2.11045   0.33835   0. 
 Br                   -0.31955   2.76835   0. 
 Br                   -2.74955   0.33835   0. 
 Cl                   -0.31955   0.33835   2.28 
 Cl                   -0.31955   0.33835  -2.28 
 

 GradGradGradGradGradGradGradGradGradGradGradGradGradGradGradGradGradGrad
 Berny optimization.
 Initialization pass.
                           ----------------------------
                           !    Initial Parameters    !
                           ! (Angstroms and Degrees)  !
 --------------------------                            --------------------------
 ! Name  Definition              Value          Derivative Info.                !
 --------------------------------------------------------------------------------
 ! R1    R(1,2)                  2.43           estimate D2E/DX2                !
 ! R2    R(1,3)                  2.43           estimate D2E/DX2                !
 ! R3    R(1,4)                  2.43           estimate D2E/DX2                !
 ! R4    R(1,5)                  2.43           estimate D2E/DX2                !
 ! R5    R(1,6)                  2.28           estimate D2E/DX2                !
 ! R6    R(1,7)                  2.28           estimate D2E/DX2                !
 ! A1    A(2,1,3)               90.0            estimate D2E/DX2                !
 ! A2    A(2,1,5)               90.0            estimate D2E/DX2                !
 ! A3    A(2,1,6)               90.0            estimate D2E/DX2                !
 ! A4    A(2,1,7)               90.0            estimate D2E/DX2                !
 ! A5    A(3,1,4)               90.0            estimate D2E/DX2                !
 ! A6    A(3,1,6)               90.0            estimate D2E/DX2                !
 ! A7    A(3,1,7)               90.0            estimate D2E/DX2                !
 ! A8    A(4,1,5)               90.0            estimate D2E/DX2                !
 ! A9    A(4,1,6)               90.0            estimate D2E/DX2                !
 ! A10   A(4,1,7)               90.0            estimate D2E/DX2                !
 ! A11   A(5,1,6)               90.0            estimate D2E/DX2                !
 ! A12   A(5,1,7)               90.0            estimate D2E/DX2                !
 ! A13   L(2,1,4,3,-1)         180.0            estimate D2E/DX2                !
 ! A14   L(3,1,5,2,-1)         180.0            estimate D2E/DX2                !
 ! A15   L(6,1,7,2,-1)         180.0            estimate D2E/DX2                !
 ! A16   L(2,1,4,3,-2)         180.0            estimate D2E/DX2                !
 ! A17   L(3,1,5,2,-2)         180.0            estimate D2E/DX2                !
 ! A18   L(6,1,7,2,-2)         180.0            estimate D2E/DX2                !
 ! D1    D(2,1,6,3)             90.0            estimate D2E/DX2                !
 ! D2    D(2,1,7,3)            -90.0            estimate D2E/DX2                !
 ! D3    D(2,1,6,5)            -90.0            estimate D2E/DX2                !
 ! D4    D(2,1,7,5)             90.0            estimate D2E/DX2                !
 ! D5    D(3,1,6,4)             90.0            estimate D2E/DX2                !
 ! D6    D(3,1,7,4)            -90.0            estimate D2E/DX2                !
 ! D7    D(4,1,6,5)             90.0            estimate D2E/DX2                !
 ! D8    D(4,1,7,5)            -90.0            estimate D2E/DX2                !
 --------------------------------------------------------------------------------
 Trust Radius=3.00D-01 FncErr=1.00D-07 GrdErr=1.00D-06
 Number of steps in this run=     42 maximum allowed number of steps=    100.
 GradGradGradGradGradGradGradGradGradGradGradGradGradGradGradGradGradGrad

                          Input orientation:                          
 ---------------------------------------------------------------------
 Center     Atomic      Atomic             Coordinates (Angstroms)
 Number     Number       Type             X           Y           Z
 ---------------------------------------------------------------------
      1         78           0       -0.319549    0.338346    0.000000
      2         35           0       -0.319549   -2.091654    0.000000
      3         35           0        2.110451    0.338346    0.000000
      4         35           0       -0.319549    2.768346    0.000000
      5         35           0       -2.749549    0.338346    0.000000
      6         17           0       -0.319549    0.338346    2.280000
      7         17           0       -0.319549    0.338346   -2.280000
 ---------------------------------------------------------------------
                    Distance matrix (angstroms):
                    1          2          3          4          5
     1  Pt   0.000000
     2  Br   2.430000   0.000000
     3  Br   2.430000   3.436539   0.000000
     4  Br   2.430000   4.860000   3.436539   0.000000
     5  Br   2.430000   3.436539   4.860000   3.436539   0.000000
     6  Cl   2.280000   3.332161   3.332161   3.332161   3.332161
     7  Cl   2.280000   3.332161   3.332161   3.332161   3.332161
                    6          7
     6  Cl   0.000000
     7  Cl   4.560000   0.000000
 Stoichiometry    Br4Cl2Pt(2-)
 Framework group  D4H[O(Pt),C4(Cl.Cl),2C2'(Br.Br)]
 Deg. of freedom     2
 Full point group                 D4H     NOp  16
 Largest Abelian subgroup         D2H     NOp   8
 Largest concise Abelian subgroup D2H     NOp   8
                         Standard orientation:                         
 ---------------------------------------------------------------------
 Center     Atomic      Atomic             Coordinates (Angstroms)
 Number     Number       Type             X           Y           Z
 ---------------------------------------------------------------------
      1         78           0        0.000000    0.000000    0.000000
      2         35           0        0.000000    2.430000    0.000000
      3         35           0       -2.430000    0.000000    0.000000
      4         35           0        0.000000   -2.430000    0.000000
      5         35           0        2.430000    0.000000    0.000000
      6         17           0        0.000000    0.000000    2.280000
      7         17           0        0.000000    0.000000   -2.280000
 ---------------------------------------------------------------------
 Rotational constants (GHZ):      0.3900812      0.3900812      0.2711232
 General basis read from cards:  (5D, 7F)
 ======================================================================================================
                                       Pseudopotential Parameters
 ======================================================================================================
  Center     Atomic      Valence      Angular      Power
  Number     Number     Electrons     Momentum     of R      Exponent        Coefficient   SO-Coeffient
 ======================================================================================================
    1         78           18
                                      G and up 
                                                     1      728.9394056       -0.16192680    0.00000000
                                                     2      320.6567800    -1320.28738520    0.00000000
                                                     2       52.8680174     -298.31781350    0.00000000
                                                     2       12.0280128      -87.58370650    0.00000000
                                                     2        3.5238913       -8.14932740    0.00000000
                                      S - G
                                                     0      409.4437358        2.73342180    0.00000000
                                                     1      274.5419231       59.70243290    0.00000000
                                                     2      127.5658570      891.45895500    0.00000000
                                                     2       32.9036631      368.44676560    0.00000000
                                                     2        5.0593880      238.02630900    0.00000000
                                                     2        4.1506556     -107.05564540    0.00000000
                                      P - G
                                                     0      466.1728892        1.88785680    0.00000000
                                                     1      120.7888259       76.01386290    0.00000000
                                                     2       36.4118791      343.55111160    0.00000000
                                                     2        5.6985408      119.49117860    0.00000000
                                      D - G
                                                     0      249.5650763        2.93436780    0.00000000
                                                     1      126.6678585       59.33065710    0.00000000
                                                     2       63.1430586      452.44451940    0.00000000
                                                     2       17.9059470      210.47694790    0.00000000
                                                     2        4.2239373       58.62541120    0.00000000
                                      F - G
                                                     0      121.8158799        3.95342530    0.00000000
                                                     1       60.8757030       53.85551820    0.00000000
                                                     2       31.4767147      247.43051330    0.00000000
                                                     2        9.8811751      127.81879760    0.00000000
                                                     2        2.7319874       15.37720460    0.00000000
    2         35
                                   No pseudopotential on this center.
    3         35
                                   No pseudopotential on this center.
    4         35
                                   No pseudopotential on this center.
    5         35
                                   No pseudopotential on this center.
    6         17
                                   No pseudopotential on this center.
    7         17
                                   No pseudopotential on this center.
 ======================================================================================================
 There are    55 symmetry adapted cartesian basis functions of AG  symmetry.
 There are    17 symmetry adapted cartesian basis functions of B1G symmetry.
 There are    16 symmetry adapted cartesian basis functions of B2G symmetry.
 There are    16 symmetry adapted cartesian basis functions of B3G symmetry.
 There are     7 symmetry adapted cartesian basis functions of AU  symmetry.
 There are    27 symmetry adapted cartesian basis functions of B1U symmetry.
 There are    32 symmetry adapted cartesian basis functions of B2U symmetry.
 There are    32 symmetry adapted cartesian basis functions of B3U symmetry.
 There are    46 symmetry adapted basis functions of AG  symmetry.
 There are    17 symmetry adapted basis functions of B1G symmetry.
 There are    16 symmetry adapted basis functions of B2G symmetry.
 There are    16 symmetry adapted basis functions of B3G symmetry.
 There are     7 symmetry adapted basis functions of AU  symmetry.
 There are    26 symmetry adapted basis functions of B1U symmetry.
 There are    29 symmetry adapted basis functions of B2U symmetry.
 There are    29 symmetry adapted basis functions of B3U symmetry.
   186 basis functions,   437 primitive gaussians,   202 cartesian basis functions
    97 alpha electrons       97 beta electrons
       nuclear repulsion energy      2501.5825381767 Hartrees.
 NAtoms=    7 NActive=    7 NUniq=    3 SFac= 4.00D+00 NAtFMM=   60 NAOKFM=F Big=F
 Integral buffers will be    131072 words long.
 Raffenetti 2 integral format.
 Two-electron integral symmetry is turned on.
 ------------------------------------------------------------------------------
 Polarizable Continuum Model (PCM)
 =================================
 Model                : PCM (using non-symmetric T matrix).
 Atomic radii         : UFF (Universal Force Field).
 Polarization charges : Total charges.
 Charge compensation  : None.
 Solution method      : On-the-fly selection.
 Cavity type          : Scaled VdW (van der Waals Surface) (Alpha=1.100).
 Cavity algorithm     : GePol (No added spheres)
                        Default sphere list used, NSphG=    7.
                        Lebedev-Laikov grids with approx.  5.0 points / Ang**2.
                        Smoothing algorithm: Karplus/York (Gamma=1.0000).
                        Polarization charges: spherical gaussians, with
                                              point-specific exponents (IZeta= 3).
                        Self-potential: point-specific (ISelfS= 7).
                        Self-field    : sphere-specific E.n sum rule (ISelfD= 2).
 1st derivatives      : Analytical E(r).r(x)/FMM algorithm (CHGder, D1EAlg=3).
                        Cavity 1st derivative terms included.
 Solvent              : Water, Eps=  78.355300 Eps(inf)=   1.777849
 ------------------------------------------------------------------------------
 Spheres list:
 ISph  on   Nord     Re0    Alpha      Xe            Ye            Ze
    1  Pt      1    1.3770  1.100      0.000000      0.000000      0.000000
    2  Br      2    2.0945  1.100      0.000000      2.430000      0.000000
    3  Br      3    2.0945  1.100     -2.430000      0.000000      0.000000
    4  Br      4    2.0945  1.100      0.000000     -2.430000      0.000000
    5  Br      5    2.0945  1.100      2.430000      0.000000      0.000000
    6  Cl      6    1.9735  1.100      0.000000      0.000000      2.280000
    7  Cl      7    1.9735  1.100      0.000000      0.000000     -2.280000
 ------------------------------------------------------------------------------
 One-electron integrals computed using PRISM.
  16 Symmetry operations used in ECPInt.
 ECPInt:  NShTT=    2628 NPrTT=   15095 LenC2=    2336 LenP2D=    9108.
 LDataN:  DoStor=T MaxTD1= 6 Len=  172
 NBasis=   186 RedAO= T EigKep=  8.42D-03  NBF=    46    17    16    16     7    26    29    29
 NBsUse=   186 1.00D-06 EigRej= -1.00D+00 NBFU=    46    17    16    16     7    26    29    29
 Defaulting to unpruned grid for atomic number  78.
 ExpMin= 2.90D-02 ExpMax= 1.13D+05 ExpMxC= 1.70D+04 IAcc=3 IRadAn=         5 AccDes= 0.00D+00
 Harris functional with IExCor=  402 and IRadAn=       5 diagonalized for initial guess.
 HarFok:  IExCor=  402 AccDes= 0.00D+00 IRadAn=         5 IDoV= 1 UseB2=F ITyADJ=14
 ICtDFT=  3500011 ScaDFX=  1.000000  1.000000  1.000000  1.000000
 Defaulting to unpruned grid for atomic number  78.
 Defaulting to unpruned grid for atomic number  78.
 Defaulting to unpruned grid for atomic number  78.
 Defaulting to unpruned grid for atomic number  78.
 Defaulting to unpruned grid for atomic number  78.
 Defaulting to unpruned grid for atomic number  78.
 Defaulting to unpruned grid for atomic number  78.
 Defaulting to unpruned grid for atomic number  78.
 FoFCou: FMM=F IPFlag=           0 FMFlag=      100000 FMFlg1=           0
         NFxFlg=           0 DoJE=T BraDBF=F KetDBF=T FulRan=T
         wScrn=  0.000000 ICntrl=     500 IOpCl=  0 I1Cent=   200000004 NGrid=           0
         NMat0=    1 NMatS0=      1 NMatT0=    0 NMatD0=    1 NMtDS0=    0 NMtDT0=    0
 Petite list used in FoFCou.
 Initial guess orbital symmetries:
       Occupied  (A1G) (EU) (EU) (B1G) (A1G) (A2U) (EU) (EU) (A1G)
                 (B1G) (EU) (EU) (B1G) (A2G) (A1G) (A2U) (EU) (EU)
                 (B2U) (EG) (EG) (B2G) (A2U) (A1G) (EU) (EU) (A1G)
                 (B1G) (A2U) (A1G) (EU) (EU) (EG) (EG) (EU) (EU)
                 (B1G) (A1G) (A2G) (EU) (EU) (B2G) (A2U) (B2U)
                 (EG) (EG) (A1G) (EU) (EU) (B1G) (A1G) (B2G) (EU)
                 (EU) (A2G) (A2U) (EG) (EG) (B2U) (A1G) (EU) (EU)
                 (B1G) (B1U) (EG) (EG) (A1U) (EU) (EU) (A2U) (A1G)
                 (EU) (EU) (B1G) (A1G) (A2U) (A1G) (B2G) (B1G)
                 (EU) (EU) (EG) (EG) (A2U) (A1G) (B2U) (EU) (EU)
                 (A2G) (A2U) (EG) (EG) (EU) (EU) (B2G) (EG) (EG)
       Virtual   (B1G) (A1G) (EU) (EU) (A2U) (A1G) (EU) (EU) (A2U)
                 (A1G) (B2G) (EG) (EG) (B1G) (A1G) (EU) (EU) (EU)
                 (EU) (B1U) (B1G) (B2U) (EG) (EG) (A2G) (A1U) (B1G)
                 (EU) (EU) (A1G) (B2G) (EU) (EU) (EG) (EG) (A2U)
                 (A1G) (B2U) (EG) (EG) (A2U) (EU) (EU) (A2U) (B1G)
                 (A1G) (B2G) (A2G) (B1U) (EU) (EU) (B2U) (A2U)
                 (EG) (EG) (B1G) (A1G) (B2G) (EU) (EU) (A1G) (EU)
                 (EU) (EG) (EG) (B1G) (A2U) (A1G) (B1U) (EU) (EU)
                 (EG) (EG) (B2U) (A1U) (B1G) (A1G) (EU) (EU) (A2G)
                 (EG) (EG) (A2U) (B2G) (EU) (EU) (A1G) (B1G) (A1G)
 The electronic state of the initial guess is 1-A1G.
 Keep R1 ints in memory in symmetry-blocked form, NReq=170706637.
 Requested convergence on RMS density matrix=1.00D-08 within 128 cycles.
 Requested convergence on MAX density matrix=1.00D-06.
 Requested convergence on             energy=1.00D-06.
 No special actions if energy rises.
 Defaulting to unpruned grid for atomic number  78.
 Defaulting to unpruned grid for atomic number  78.
 Defaulting to unpruned grid for atomic number  78.
 Defaulting to unpruned grid for atomic number  78.
 Defaulting to unpruned grid for atomic number  78.
 Defaulting to unpruned grid for atomic number  78.
 Defaulting to unpruned grid for atomic number  78.
 Defaulting to unpruned grid for atomic number  78.
 Inv3:  Mode=1 IEnd=     6696108.
 Iteration    1 A*A^-1 deviation from unit magnitude is 7.44D-15 for     36.
 Iteration    1 A*A^-1 deviation from orthogonality  is 2.74D-15 for   1202    915.
 Iteration    1 A^-1*A deviation from unit magnitude is 6.11D-15 for     28.
 Iteration    1 A^-1*A deviation from orthogonality  is 1.73D-15 for   1462   1290.
 EnCoef did   100 forward-backward iterations
 Error on total polarization charges =  0.02048
 SCF Done:  E(RB3LYP) =  -11335.2622897     A.U. after   11 cycles
            NFock= 11  Conv=0.48D-08     -V/T= 2.0085

 **********************************************************************

            Population analysis using the SCF density.

 **********************************************************************

 Orbital symmetries:
       Occupied  (A1G) (EU) (EU) (B1G) (A1G) (A2U) (EU) (EU) (A1G)
                 (B1G) (EU) (EU) (B1G) (A1G) (A2G) (A2U) (EU) (EU)
                 (B2U) (EG) (EG) (B2G) (A2U) (A1G) (EU) (EU) (A1G)
                 (B1G) (A2U) (A1G) (EU) (EU) (EG) (EG) (EU) (EU)
                 (B1G) (A1G) (A2U) (B2U) (EG) (EG) (A2G) (EU) (EU)
                 (B2G) (A1G) (EU) (EU) (A1G) (B1G) (A2U) (EG) (EG)
                 (B2G) (B2U) (EU) (EU) (A2G) (A1U) (EG) (EG) (B1U)
                 (A1G) (EU) (EU) (B1G) (A2U) (EU) (EU) (A1G) (A2U)
                 (A1G) (B1G) (EU) (EU) (A1G) (B1G) (A1G) (EG) (EG)
                 (B2G) (A2U) (EU) (EU) (EU) (EU) (A2U) (B2U) (EU)
                 (EU) (EG) (EG) (B2G) (EG) (EG) (A2G)
       Virtual   (B1G) (A1G) (EU) (EU) (A2U) (A1G) (EU) (EU) (A2U)
                 (B2G) (A1G) (EG) (EG) (B1G) (A1G) (B1G) (EU) (EU)
                 (EU) (EU) (B2U) (A2G) (B1U) (EU) (EU) (A1G) (EG)
                 (EG) (A1U) (B1G) (B2G) (A1G) (EU) (EU) (EG) (EG)
                 (A2U) (B2U) (EG) (EG) (A2U) (A2U) (A1G) (EU) (EU)
                 (B1G) (B2G) (B1U) (EU) (EU) (B2U) (A2G) (A2U)
                 (EG) (EG) (A1G) (B1G) (EU) (EU) (B2G) (A1G) (EG)
                 (EG) (EU) (EU) (B1G) (A2U) (A1G) (B1U) (EU) (EU)
                 (B2U) (EG) (EG) (A1U) (B1G) (A1G) (EU) (EU) (A2G)
                 (EG) (EG) (A2U) (EU) (EU) (B2G) (A1G) (B1G) (A1G)
 The electronic state is 1-A1G.
 Alpha  occ. eigenvalues -- -482.74234-482.74234-482.74234-482.74232-101.44544
 Alpha  occ. eigenvalues -- -101.44544 -62.42393 -62.42393 -62.42393 -62.42391
 Alpha  occ. eigenvalues --  -56.25580 -56.25580 -56.25580 -56.25578 -56.25293
 Alpha  occ. eigenvalues --  -56.25292 -56.25291 -56.25291 -56.25291 -56.25291
 Alpha  occ. eigenvalues --  -56.25291 -56.25289  -9.39878  -9.39876  -8.64160
 Alpha  occ. eigenvalues --   -8.64160  -8.64158  -8.64158  -7.16677  -7.16675
 Alpha  occ. eigenvalues --   -7.15839  -7.15839  -7.15839  -7.15839  -6.47345
 Alpha  occ. eigenvalues --   -6.47345  -6.47345  -6.47345  -6.46294  -6.46294
 Alpha  occ. eigenvalues --   -6.46294  -6.46294  -6.46293  -6.46293  -6.46293
 Alpha  occ. eigenvalues --   -6.46292  -4.00655  -2.58801  -2.58801  -2.58799
 Alpha  occ. eigenvalues --   -2.58798  -2.58501  -2.58501  -2.58501  -2.58501
 Alpha  occ. eigenvalues --   -2.58500  -2.58500  -2.58500  -2.58500  -2.57675
 Alpha  occ. eigenvalues --   -2.57674  -2.57674  -2.57674  -2.57674  -2.57674
 Alpha  occ. eigenvalues --   -2.57674  -2.57674  -2.22114  -2.21803  -2.21803
 Alpha  occ. eigenvalues --   -0.77332  -0.74942  -0.73212  -0.71728  -0.71551
 Alpha  occ. eigenvalues --   -0.71551  -0.41575  -0.40145  -0.39526  -0.39485
 Alpha  occ. eigenvalues --   -0.39485  -0.38655  -0.32211  -0.31896  -0.31896
 Alpha  occ. eigenvalues --   -0.26232  -0.26232  -0.25539  -0.25149  -0.24701
 Alpha  occ. eigenvalues --   -0.24701  -0.24534  -0.24534  -0.24519  -0.23218
 Alpha  occ. eigenvalues --   -0.23218  -0.22407
 Alpha virt. eigenvalues --   -0.08990  -0.07890   0.05601   0.05601   0.06022
 Alpha virt. eigenvalues --    0.11868   0.23696   0.23696   0.24120   0.34107
 Alpha virt. eigenvalues --    0.35144   0.35738   0.35738   0.41468   0.47412
 Alpha virt. eigenvalues --    0.48806   0.50432   0.50432   0.54627   0.54627
 Alpha virt. eigenvalues --    0.55014   0.55998   0.56158   0.56322   0.56322
 Alpha virt. eigenvalues --    0.56483   0.56553   0.56553   0.58307   0.58583
 Alpha virt. eigenvalues --    0.59081   0.61931   0.62833   0.62833   0.63624
 Alpha virt. eigenvalues --    0.63624   0.65973   0.67124   0.72045   0.72045
 Alpha virt. eigenvalues --    0.72392   0.74592   0.74848   0.75293   0.75293
 Alpha virt. eigenvalues --    0.77335   0.79678   0.82999   0.85655   0.85655
 Alpha virt. eigenvalues --    0.86765   0.86940   0.99434   1.00207   1.00207
 Alpha virt. eigenvalues --    1.02263   1.02528   1.07076   1.07076   1.07197
 Alpha virt. eigenvalues --    1.13012   1.20345   1.20345   1.20835   1.20835
 Alpha virt. eigenvalues --    1.29646   1.42099   1.49385   3.44013   3.44090
 Alpha virt. eigenvalues --    3.44090   3.44311   3.45574   3.45574   3.45982
 Alpha virt. eigenvalues --    3.48513   3.49401   3.49409   3.49409   3.51393
 Alpha virt. eigenvalues --    3.61984   3.61984   3.68732   3.68750   3.68750
 Alpha virt. eigenvalues --    3.69299   3.72908   3.89207   8.01821
          Condensed to atoms (all electrons):
               1          2          3          4          5          6
     1  Pt  17.507144   0.193002   0.193002   0.193002   0.193002   0.236729
     2  Br   0.193002  35.104293  -0.030674  -0.004843  -0.030674  -0.023784
     3  Br   0.193002  -0.030674  35.104293  -0.030674  -0.004843  -0.023784
     4  Br   0.193002  -0.004843  -0.030674  35.104293  -0.030674  -0.023784
     5  Br   0.193002  -0.030674  -0.004843  -0.030674  35.104293  -0.023784
     6  Cl   0.236729  -0.023784  -0.023784  -0.023784  -0.023784  17.116881
     7  Cl   0.236729  -0.023784  -0.023784  -0.023784  -0.023784  -0.001848
               7
     1  Pt   0.236729
     2  Br  -0.023784
     3  Br  -0.023784
     4  Br  -0.023784
     5  Br  -0.023784
     6  Cl  -0.001848
     7  Cl  17.116881
 Mulliken charges:
               1
     1  Pt  -0.752611
     2  Br  -0.183535
     3  Br  -0.183535
     4  Br  -0.183535
     5  Br  -0.183535
     6  Cl  -0.256625
     7  Cl  -0.256625
 Sum of Mulliken charges =  -2.00000
 Mulliken charges with hydrogens summed into heavy atoms:
               1
     1  Pt  -0.752611
     2  Br  -0.183535
     3  Br  -0.183535
     4  Br  -0.183535
     5  Br  -0.183535
     6  Cl  -0.256625
     7  Cl  -0.256625
 Electronic spatial extent (au):  <R**2>=           3918.1537
 Charge=             -2.0000 electrons
 Dipole moment (field-independent basis, Debye):
    X=              0.0000    Y=              0.0000    Z=              0.0000  Tot=              0.0000
 Quadrupole moment (field-independent basis, Debye-Ang):
   XX=           -150.5439   YY=           -150.5439   ZZ=           -149.2760
   XY=              0.0000   XZ=              0.0000   YZ=              0.0000
 Traceless Quadrupole moment (field-independent basis, Debye-Ang):
   XX=             -0.4226   YY=             -0.4226   ZZ=              0.8453
   XY=              0.0000   XZ=              0.0000   YZ=              0.0000
 Octapole moment (field-independent basis, Debye-Ang**2):
  XXX=              0.0000  YYY=              0.0000  ZZZ=              0.0000  XYY=              0.0000
  XXY=              0.0000  XXZ=              0.0000  XZZ=              0.0000  YZZ=              0.0000
  YYZ=              0.0000  XYZ=              0.0000
 Hexadecapole moment (field-independent basis, Debye-Ang**3):
 XXXX=          -1599.0814 YYYY=          -1599.0814 ZZZZ=          -1067.5782 XXXY=              0.0000
 XXXZ=              0.0000 YYYX=              0.0000 YYYZ=              0.0000 ZZZX=              0.0000
 ZZZY=              0.0000 XXYY=           -525.6371 XXZZ=           -432.5918 YYZZ=           -432.5918
 XXYZ=              0.0000 YYXZ=              0.0000 ZZXY=              0.0000
 N-N= 2.501582538177D+03 E-N=-3.211022393411D+04  KE= 1.123983982803D+04
 Symmetry AG   KE= 4.099208856499D+03
 Symmetry B1G  KE= 6.701125751027D+02
 Symmetry B2G  KE= 4.260511765418D+02
 Symmetry B3G  KE= 4.260511765418D+02
 Symmetry AU   KE= 8.576160058239D+01
 Symmetry B1U  KE= 1.038808343921D+03
 Symmetry B2U  KE= 2.246923049419D+03
 Symmetry B3U  KE= 2.246923049419D+03
  16 Symmetry operations used in ECPInt.
 ECPInt:  NShTT=    2628 NPrTT=   15095 LenC2=    2336 LenP2D=    9108.
 LDataN:  DoStor=T MaxTD1= 7 Len=  274
 D1PCM: PCM CHGder 1st derivatives, ID1Alg=3 FixD1E=F DoIter=F DoCFld=F I1PDM=0.
 Calling FoFJK, ICntrl=      2127 FMM=F ISym2X=1 I1Cent= 0 IOpClX= 0 NMat=1 NMatS=1 NMatT=0.
 Defaulting to unpruned grid for atomic number  78.
 Defaulting to unpruned grid for atomic number  78.
 Defaulting to unpruned grid for atomic number  78.
 Defaulting to unpruned grid for atomic number  78.
 Defaulting to unpruned grid for atomic number  78.
 Defaulting to unpruned grid for atomic number  78.
 Defaulting to unpruned grid for atomic number  78.
 Defaulting to unpruned grid for atomic number  78.
 ***** Axes restored to original set *****
 -------------------------------------------------------------------
 Center     Atomic                   Forces (Hartrees/Bohr)
 Number     Number              X              Y              Z
 -------------------------------------------------------------------
      1       78           0.000000000    0.000000000    0.000000000
      2       35           0.000000000   -0.035510793    0.000000000
      3       35           0.035510793    0.000000000    0.000000000
      4       35           0.000000000    0.035510793    0.000000000
      5       35          -0.035510793    0.000000000    0.000000000
      6       17           0.000000000    0.000000000    0.042658166
      7       17           0.000000000    0.000000000   -0.042658166
 -------------------------------------------------------------------
 Cartesian Forces:  Max     0.042658166 RMS     0.020334704

 GradGradGradGradGradGradGradGradGradGradGradGradGradGradGradGradGradGrad
 Berny optimization.
 FormGI is forming the generalized inverse of G from B-inverse, IUseBI=4.
 Internal  Forces:  Max     0.042658166 RMS     0.016472993
 Search for a local minimum.
 Step number   1 out of a maximum of   42
 All quantities printed in internal units (Hartrees-Bohrs-Radians)
 Mixed Optimization -- RFO/linear search
 Second derivative matrix not updated -- first step.
 ITU=  0
     Eigenvalues ---    0.06422   0.06423   0.08487   0.12615   0.12615
     Eigenvalues ---    0.12615   0.12615   0.19509   0.19509   0.19509
     Eigenvalues ---    0.19509   0.22001   0.22001   0.25000   0.25000
 RFO step:  Lambda=-3.60376688D-02 EMin= 6.42250000D-02
 Linear search not attempted -- first point.
 Maximum step size (   0.300) exceeded in Quadratic search.
    -- Step size scaled by   0.775
 Iteration  1 RMS(Cart)=  0.05303301 RMS(Int)=  0.00000000
 Iteration  2 RMS(Cart)=  0.00000000 RMS(Int)=  0.00000000
 ClnCor:  largest displacement from symmetrization is 1.21D-12 for atom     7.
 Variable       Old X    -DE/DX   Delta X   Delta X   Delta X     New X
                                 (Linear)    (Quad)   (Total)
    R1        4.59203   0.03551   0.00000   0.11904   0.11904   4.71107
    R2        4.59203   0.03551   0.00000   0.11904   0.11904   4.71107
    R3        4.59203   0.03551   0.00000   0.11904   0.11904   4.71107
    R4        4.59203   0.03551   0.00000   0.11904   0.11904   4.71107
    R5        4.30858   0.04266   0.00000   0.12908   0.12908   4.43765
    R6        4.30858   0.04266   0.00000   0.12908   0.12908   4.43765
    A1        1.57080   0.00000   0.00000   0.00000   0.00000   1.57080
    A2        1.57080   0.00000   0.00000   0.00000   0.00000   1.57080
    A3        1.57080   0.00000   0.00000   0.00000   0.00000   1.57080
    A4        1.57080   0.00000   0.00000   0.00000   0.00000   1.57080
    A5        1.57080   0.00000   0.00000   0.00000   0.00000   1.57080
    A6        1.57080   0.00000   0.00000   0.00000   0.00000   1.57080
    A7        1.57080   0.00000   0.00000   0.00000   0.00000   1.57080
    A8        1.57080   0.00000   0.00000   0.00000   0.00000   1.57080
    A9        1.57080   0.00000   0.00000   0.00000   0.00000   1.57080
   A10        1.57080   0.00000   0.00000   0.00000   0.00000   1.57080
   A11        1.57080   0.00000   0.00000   0.00000   0.00000   1.57080
   A12        1.57080   0.00000   0.00000   0.00000   0.00000   1.57080
   A13        3.14159   0.00000   0.00000   0.00000   0.00000   3.14159
   A14        3.14159   0.00000   0.00000   0.00000   0.00000   3.14159
   A15        3.14159   0.00000   0.00000   0.00000   0.00000   3.14159
   A16        3.14159   0.00000   0.00000   0.00000   0.00000   3.14159
   A17        3.14159   0.00000   0.00000   0.00000   0.00000   3.14159
   A18        3.14159   0.00000   0.00000   0.00000   0.00000   3.14159
    D1        1.57080   0.00000   0.00000   0.00000   0.00000   1.57080
    D2       -1.57080   0.00000   0.00000   0.00000   0.00000  -1.57080
    D3       -1.57080   0.00000   0.00000   0.00000   0.00000  -1.57080
    D4        1.57080   0.00000   0.00000   0.00000   0.00000   1.57080
    D5        1.57080   0.00000   0.00000   0.00000   0.00000   1.57080
    D6       -1.57080   0.00000   0.00000   0.00000   0.00000  -1.57080
    D7        1.57080   0.00000   0.00000   0.00000   0.00000   1.57080
    D8       -1.57080   0.00000   0.00000   0.00000   0.00000  -1.57080
         Item               Value     Threshold  Converged?
 Maximum Force            0.042658     0.000450     NO 
 RMS     Force            0.016473     0.000300     NO 
 Maximum Displacement     0.129078     0.001800     NO 
 RMS     Displacement     0.053033     0.001200     NO 
 Predicted change in Energy=-1.872640D-02
 GradGradGradGradGradGradGradGradGradGradGradGradGradGradGradGradGradGrad

                          Input orientation:                          
 ---------------------------------------------------------------------
 Center     Atomic      Atomic             Coordinates (Angstroms)
 Number     Number       Type             X           Y           Z
 ---------------------------------------------------------------------
      1         78           0       -0.319549    0.338346    0.000000
      2         35           0       -0.319549   -2.154645    0.000000
      3         35           0        2.173442    0.338346    0.000000
      4         35           0       -0.319549    2.831337    0.000000
      5         35           0       -2.812540    0.338346    0.000000
      6         17           0       -0.319549    0.338346    2.348305
      7         17           0       -0.319549    0.338346   -2.348305
 ---------------------------------------------------------------------
                    Distance matrix (angstroms):
                    1          2          3          4          5
     1  Pt   0.000000
     2  Br   2.492991   0.000000
     3  Br   2.492991   3.525622   0.000000
     4  Br   2.492991   4.985982   3.525622   0.000000
     5  Br   2.492991   3.525622   4.985982   3.525622   0.000000
     6  Cl   2.348305   3.424842   3.424842   3.424842   3.424842
     7  Cl   2.348305   3.424842   3.424842   3.424842   3.424842
                    6          7
     6  Cl   0.000000
     7  Cl   4.696610   0.000000
 Stoichiometry    Br4Cl2Pt(2-)
 Framework group  D4H[O(Pt),C4(Cl.Cl),2C2'(Br.Br)]
 Deg. of freedom     2
 Full point group                 D4H     NOp  16
 Largest Abelian subgroup         D2H     NOp   8
 Largest concise Abelian subgroup D2H     NOp   8
                         Standard orientation:                         
 ---------------------------------------------------------------------
 Center     Atomic      Atomic             Coordinates (Angstroms)
 Number     Number       Type             X           Y           Z
 ---------------------------------------------------------------------
      1         78           0        0.000000    0.000000    0.000000
      2         35           0        0.000000    2.492991    0.000000
      3         35           0       -2.492991    0.000000    0.000000
      4         35           0        0.000000   -2.492991    0.000000
      5         35           0        2.492991    0.000000    0.000000
      6         17           0        0.000000    0.000000    2.348305
      7         17           0        0.000000    0.000000   -2.348305
 ---------------------------------------------------------------------
 Rotational constants (GHZ):      0.3697996      0.3697996      0.2575953
 Basis read from rwf:  (5D, 7F)
 Pseudo-potential data read from rwf file.
 There are    55 symmetry adapted cartesian basis functions of AG  symmetry.
 There are    17 symmetry adapted cartesian basis functions of B1G symmetry.
 There are    16 symmetry adapted cartesian basis functions of B2G symmetry.
 There are    16 symmetry adapted cartesian basis functions of B3G symmetry.
 There are     7 symmetry adapted cartesian basis functions of AU  symmetry.
 There are    27 symmetry adapted cartesian basis functions of B1U symmetry.
 There are    32 symmetry adapted cartesian basis functions of B2U symmetry.
 There are    32 symmetry adapted cartesian basis functions of B3U symmetry.
 There are    46 symmetry adapted basis functions of AG  symmetry.
 There are    17 symmetry adapted basis functions of B1G symmetry.
 There are    16 symmetry adapted basis functions of B2G symmetry.
 There are    16 symmetry adapted basis functions of B3G symmetry.
 There are     7 symmetry adapted basis functions of AU  symmetry.
 There are    26 symmetry adapted basis functions of B1U symmetry.
 There are    29 symmetry adapted basis functions of B2U symmetry.
 There are    29 symmetry adapted basis functions of B3U symmetry.
   186 basis functions,   437 primitive gaussians,   202 cartesian basis functions
    97 alpha electrons       97 beta electrons
       nuclear repulsion energy      2436.3477816030 Hartrees.
 NAtoms=    7 NActive=    7 NUniq=    3 SFac= 4.00D+00 NAtFMM=   60 NAOKFM=F Big=F
 Integral buffers will be    131072 words long.
 Raffenetti 2 integral format.
 Two-electron integral symmetry is turned on.
 ------------------------------------------------------------------------------
 Polarizable Continuum Model (PCM)
 =================================
 Model                : PCM (using non-symmetric T matrix).
 Atomic radii         : UFF (Universal Force Field).
 Polarization charges : Total charges.
 Charge compensation  : None.
 Solution method      : On-the-fly selection.
 Cavity type          : Scaled VdW (van der Waals Surface) (Alpha=1.100).
 Cavity algorithm     : GePol (No added spheres)
                        Default sphere list used, NSphG=    7.
                        Lebedev-Laikov grids with approx.  5.0 points / Ang**2.
                        Smoothing algorithm: Karplus/York (Gamma=1.0000).
                        Polarization charges: spherical gaussians, with
                                              point-specific exponents (IZeta= 3).
                        Self-potential: point-specific (ISelfS= 7).
                        Self-field    : sphere-specific E.n sum rule (ISelfD= 2).
 1st derivatives      : Analytical E(r).r(x)/FMM algorithm (CHGder, D1EAlg=3).
                        Cavity 1st derivative terms included.
 Solvent              : Water, Eps=  78.355300 Eps(inf)=   1.777849
 ------------------------------------------------------------------------------
 Spheres list:
 ISph  on   Nord     Re0    Alpha      Xe            Ye            Ze
    1  Pt      1    1.3770  1.100      0.000000      0.000000      0.000000
    2  Br      2    2.0945  1.100      0.000000      2.492991      0.000000
    3  Br      3    2.0945  1.100     -2.492991      0.000000      0.000000
    4  Br      4    2.0945  1.100      0.000000     -2.492991      0.000000
    5  Br      5    2.0945  1.100      2.492991      0.000000      0.000000
    6  Cl      6    1.9735  1.100      0.000000      0.000000      2.348305
    7  Cl      7    1.9735  1.100      0.000000      0.000000     -2.348305
 ------------------------------------------------------------------------------
 One-electron integrals computed using PRISM.
  16 Symmetry operations used in ECPInt.
 ECPInt:  NShTT=    2628 NPrTT=   15095 LenC2=    2324 LenP2D=    8990.
 LDataN:  DoStor=T MaxTD1= 6 Len=  172
 NBasis=   186 RedAO= T EigKep=  9.52D-03  NBF=    46    17    16    16     7    26    29    29
 NBsUse=   186 1.00D-06 EigRej= -1.00D+00 NBFU=    46    17    16    16     7    26    29    29
 Defaulting to unpruned grid for atomic number  78.
 Initial guess from the checkpoint file:  "/home/scr/diego/Gau-6314.chk"
 B after Tr=     0.000000    0.000000    0.000000
         Rot=    1.000000    0.000000    0.000000    0.000000 Ang=   0.00 deg.
 Initial guess orbital symmetries:
       Occupied  (A1G) (EU) (EU) (B1G) (A1G) (A2U) (EU) (EU) (A1G)
                 (B1G) (EU) (EU) (B1G) (A1G) (A2G) (A2U) (EU) (EU)
                 (B2U) (EG) (EG) (B2G) (A2U) (A1G) (EU) (EU) (A1G)
                 (B1G) (A2U) (A1G) (EU) (EU) (EG) (EG) (EU) (EU)
                 (B1G) (A1G) (A2U) (B2U) (EG) (EG) (A2G) (EU) (EU)
                 (B2G) (A1G) (EU) (EU) (A1G) (B1G) (A2U) (EG) (EG)
                 (B2G) (B2U) (EU) (EU) (A2G) (A1U) (EG) (EG) (B1U)
                 (A1G) (EU) (EU) (B1G) (A2U) (EU) (EU) (A1G) (A2U)
                 (A1G) (B1G) (EU) (EU) (A1G) (B1G) (A1G) (EG) (EG)
                 (B2G) (A2U) (EU) (EU) (EU) (EU) (A2U) (B2U) (EU)
                 (EU) (EG) (EG) (B2G) (EG) (EG) (A2G)
       Virtual   (A1G) (A1G) (B1G) (A1G) (B1G) (A1G) (A1G) (B1G)
                 (A1G) (A1G) (B1G) (B1G) (A1G) (A1G) (B1G) (B1G)
                 (A1G) (A1G) (B1G) (A1G) (A1G) (B1G) (B2G) (B2G)
                 (A2G) (A2G) (B2G) (B2G) (B2G) (A2G) (EG) (EG)
                 (EG) (EG) (EG) (EG) (EG) (EG) (EG) (EG) (EG) (EG)
                 (EG) (EG) (EG) (EG) (B1U) (A1U) (B1U) (B1U) (A1U)
                 (A2U) (A2U) (A2U) (B2U) (A2U) (B2U) (A2U) (A2U)
                 (B2U) (A2U) (B2U) (A2U) (EU) (EU) (EU) (EU) (EU)
                 (EU) (EU) (EU) (EU) (EU) (EU) (EU) (EU) (EU) (EU)
                 (EU) (EU) (EU) (EU) (EU) (EU) (EU) (EU) (EU) (EU)
                 (EU)
 ExpMin= 2.90D-02 ExpMax= 1.13D+05 ExpMxC= 1.70D+04 IAcc=3 IRadAn=         5 AccDes= 0.00D+00
 Harris functional with IExCor=  402 and IRadAn=       5 diagonalized for initial guess.
 HarFok:  IExCor=  402 AccDes= 0.00D+00 IRadAn=         5 IDoV= 1 UseB2=F ITyADJ=14
 ICtDFT=  3500011 ScaDFX=  1.000000  1.000000  1.000000  1.000000
 Defaulting to unpruned grid for atomic number  78.
 Defaulting to unpruned grid for atomic number  78.
 Defaulting to unpruned grid for atomic number  78.
 Defaulting to unpruned grid for atomic number  78.
 Defaulting to unpruned grid for atomic number  78.
 Defaulting to unpruned grid for atomic number  78.
 Defaulting to unpruned grid for atomic number  78.
 Defaulting to unpruned grid for atomic number  78.
 FoFCou: FMM=F IPFlag=           0 FMFlag=      100000 FMFlg1=           0
         NFxFlg=           0 DoJE=T BraDBF=F KetDBF=T FulRan=T
         wScrn=  0.000000 ICntrl=     500 IOpCl=  0 I1Cent=   200000004 NGrid=           0
         NMat0=    1 NMatS0=      1 NMatT0=    0 NMatD0=    1 NMtDS0=    0 NMtDT0=    0
 Petite list used in FoFCou.
 Keep R1 ints in memory in symmetry-blocked form, NReq=170706637.
 Requested convergence on RMS density matrix=1.00D-08 within 128 cycles.
 Requested convergence on MAX density matrix=1.00D-06.
 Requested convergence on             energy=1.00D-06.
 No special actions if energy rises.
 Defaulting to unpruned grid for atomic number  78.
 Defaulting to unpruned grid for atomic number  78.
 Defaulting to unpruned grid for atomic number  78.
 Defaulting to unpruned grid for atomic number  78.
 Defaulting to unpruned grid for atomic number  78.
 Defaulting to unpruned grid for atomic number  78.
 Defaulting to unpruned grid for atomic number  78.
 Defaulting to unpruned grid for atomic number  78.
 Inv3:  Mode=1 IEnd=     6840300.
 Iteration    1 A*A^-1 deviation from unit magnitude is 6.00D-15 for     31.
 Iteration    1 A*A^-1 deviation from orthogonality  is 2.71D-15 for    995    113.
 Iteration    1 A^-1*A deviation from unit magnitude is 7.11D-15 for     55.
 Iteration    1 A^-1*A deviation from orthogonality  is 3.36D-15 for    732     36.
 Error on total polarization charges =  0.01970
 SCF Done:  E(RB3LYP) =  -11335.2817838     A.U. after    9 cycles
            NFock=  9  Conv=0.60D-08     -V/T= 2.0085
  16 Symmetry operations used in ECPInt.
 ECPInt:  NShTT=    2628 NPrTT=   15095 LenC2=    2324 LenP2D=    8990.
 LDataN:  DoStor=T MaxTD1= 7 Len=  274
 D1PCM: PCM CHGder 1st derivatives, ID1Alg=3 FixD1E=F DoIter=F DoCFld=F I1PDM=0.
 Calling FoFJK, ICntrl=      2127 FMM=F ISym2X=1 I1Cent= 0 IOpClX= 0 NMat=1 NMatS=1 NMatT=0.
 Defaulting to unpruned grid for atomic number  78.
 Defaulting to unpruned grid for atomic number  78.
 Defaulting to unpruned grid for atomic number  78.
 Defaulting to unpruned grid for atomic number  78.
 Defaulting to unpruned grid for atomic number  78.
 Defaulting to unpruned grid for atomic number  78.
 Defaulting to unpruned grid for atomic number  78.
 Defaulting to unpruned grid for atomic number  78.
 ***** Axes restored to original set *****
 -------------------------------------------------------------------
 Center     Atomic                   Forces (Hartrees/Bohr)
 Number     Number              X              Y              Z
 -------------------------------------------------------------------
      1       78           0.000000000    0.000000000    0.000000000
      2       35           0.000000000   -0.015281385    0.000000000
      3       35           0.015281385    0.000000000    0.000000000
      4       35           0.000000000    0.015281385    0.000000000
      5       35          -0.015281385    0.000000000    0.000000000
      6       17           0.000000000    0.000000000    0.016965210
      7       17           0.000000000    0.000000000   -0.016965210
 -------------------------------------------------------------------
 Cartesian Forces:  Max     0.016965210 RMS     0.008478880

 GradGradGradGradGradGradGradGradGradGradGradGradGradGradGradGradGradGrad
 Berny optimization.
 Using GEDIIS/GDIIS optimizer.
 FormGI is forming the generalized inverse of G from B-inverse, IUseBI=4.
 Internal  Forces:  Max     0.016965210 RMS     0.006868678
 Search for a local minimum.
 Step number   2 out of a maximum of   42
 All quantities printed in internal units (Hartrees-Bohrs-Radians)
 Mixed Optimization -- RFO/linear search
 Update second derivatives using D2CorX and points    1    2
 DE= -1.95D-02 DEPred=-1.87D-02 R= 1.04D+00
 TightC=F SS=  1.41D+00  RLast= 3.00D-01 DXNew= 5.0454D-01 9.0000D-01
 Trust test= 1.04D+00 RLast= 3.00D-01 DXMaxT set to 5.05D-01
 ITU=  1  0
 Use linear search instead of GDIIS.
     Eigenvalues ---    0.06422   0.06423   0.08487   0.12615   0.12615
     Eigenvalues ---    0.12615   0.12615   0.17523   0.19509   0.19509
     Eigenvalues ---    0.19509   0.21666   0.22001   0.25000   0.25000
 RFO step:  Lambda=-5.21211485D-05 EMin= 6.42250000D-02
 Quartic linear search produced a step of  0.88994.
 Iteration  1 RMS(Cart)=  0.04749448 RMS(Int)=  0.00000000
 Iteration  2 RMS(Cart)=  0.00000000 RMS(Int)=  0.00000000
 ClnCor:  largest displacement from symmetrization is 8.06D-12 for atom     7.
 Variable       Old X    -DE/DX   Delta X   Delta X   Delta X     New X
                                 (Linear)    (Quad)   (Total)
    R1        4.71107   0.01528   0.10593   0.00528   0.11121   4.82228
    R2        4.71107   0.01528   0.10593   0.00528   0.11121   4.82228
    R3        4.71107   0.01528   0.10593   0.00528   0.11121   4.82228
    R4        4.71107   0.01528   0.10593   0.00528   0.11121   4.82228
    R5        4.43765   0.01697   0.11487  -0.00831   0.10656   4.54421
    R6        4.43765   0.01697   0.11487  -0.00831   0.10656   4.54421
    A1        1.57080   0.00000   0.00000   0.00000   0.00000   1.57080
    A2        1.57080   0.00000   0.00000   0.00000   0.00000   1.57080
    A3        1.57080   0.00000   0.00000   0.00000   0.00000   1.57080
    A4        1.57080   0.00000   0.00000   0.00000   0.00000   1.57080
    A5        1.57080   0.00000   0.00000   0.00000   0.00000   1.57080
    A6        1.57080   0.00000   0.00000   0.00000   0.00000   1.57080
    A7        1.57080   0.00000   0.00000   0.00000   0.00000   1.57080
    A8        1.57080   0.00000   0.00000   0.00000   0.00000   1.57080
    A9        1.57080   0.00000   0.00000   0.00000   0.00000   1.57080
   A10        1.57080   0.00000   0.00000   0.00000   0.00000   1.57080
   A11        1.57080   0.00000   0.00000   0.00000   0.00000   1.57080
   A12        1.57080   0.00000   0.00000   0.00000   0.00000   1.57080
   A13        3.14159   0.00000   0.00000   0.00000   0.00000   3.14159
   A14        3.14159   0.00000   0.00000   0.00000   0.00000   3.14159
   A15        3.14159   0.00000   0.00000   0.00000   0.00000   3.14159
   A16        3.14159   0.00000   0.00000   0.00000   0.00000   3.14159
   A17        3.14159   0.00000   0.00000   0.00000   0.00000   3.14159
   A18        3.14159   0.00000   0.00000   0.00000   0.00000   3.14159
    D1        1.57080   0.00000   0.00000   0.00000   0.00000   1.57080
    D2       -1.57080   0.00000   0.00000   0.00000   0.00000  -1.57080
    D3       -1.57080   0.00000   0.00000   0.00000   0.00000  -1.57080
    D4        1.57080   0.00000   0.00000   0.00000   0.00000   1.57080
    D5        1.57080   0.00000   0.00000   0.00000   0.00000   1.57080
    D6       -1.57080   0.00000   0.00000   0.00000   0.00000  -1.57080
    D7        1.57080   0.00000   0.00000   0.00000   0.00000   1.57080
    D8       -1.57080   0.00000   0.00000   0.00000   0.00000  -1.57080
         Item               Value     Threshold  Converged?
 Maximum Force            0.016965     0.000450     NO 
 RMS     Force            0.006869     0.000300     NO 
 Maximum Displacement     0.111212     0.001800     NO 
 RMS     Displacement     0.047494     0.001200     NO 
 Predicted change in Energy=-3.946667D-03
 GradGradGradGradGradGradGradGradGradGradGradGradGradGradGradGradGradGrad

                          Input orientation:                          
 ---------------------------------------------------------------------
 Center     Atomic      Atomic             Coordinates (Angstroms)
 Number     Number       Type             X           Y           Z
 ---------------------------------------------------------------------
      1         78           0       -0.319549    0.338346    0.000000
      2         35           0       -0.319549   -2.213496    0.000000
      3         35           0        2.232293    0.338346    0.000000
      4         35           0       -0.319549    2.890188    0.000000
      5         35           0       -2.871391    0.338346    0.000000
      6         17           0       -0.319549    0.338346    2.404695
      7         17           0       -0.319549    0.338346   -2.404695
 ---------------------------------------------------------------------
                    Distance matrix (angstroms):
                    1          2          3          4          5
     1  Pt   0.000000
     2  Br   2.551842   0.000000
     3  Br   2.551842   3.608849   0.000000
     4  Br   2.551842   5.103684   3.608849   0.000000
     5  Br   2.551842   3.608849   5.103684   3.608849   0.000000
     6  Cl   2.404695   3.506345   3.506345   3.506345   3.506345
     7  Cl   2.404695   3.506345   3.506345   3.506345   3.506345
                    6          7
     6  Cl   0.000000
     7  Cl   4.809389   0.000000
 Stoichiometry    Br4Cl2Pt(2-)
 Framework group  D4H[O(Pt),C4(Cl.Cl),2C2'(Br.Br)]
 Deg. of freedom     2
 Full point group                 D4H     NOp  16
 Largest Abelian subgroup         D2H     NOp   8
 Largest concise Abelian subgroup D2H     NOp   8
                         Standard orientation:                         
 ---------------------------------------------------------------------
 Center     Atomic      Atomic             Coordinates (Angstroms)
 Number     Number       Type             X           Y           Z
 ---------------------------------------------------------------------
      1         78           0        0.000000    0.000000    0.000000
      2         35           0        0.000000    2.551842    0.000000
      3         35           0       -2.551842    0.000000    0.000000
      4         35           0        0.000000   -2.551842    0.000000
      5         35           0        2.551842    0.000000    0.000000
      6         17           0        0.000000    0.000000    2.404695
      7         17           0        0.000000    0.000000   -2.404695
 ---------------------------------------------------------------------
 Rotational constants (GHZ):      0.3528604      0.3528604      0.2458509
 Basis read from rwf:  (5D, 7F)
 Pseudo-potential data read from rwf file.
 There are    55 symmetry adapted cartesian basis functions of AG  symmetry.
 There are    17 symmetry adapted cartesian basis functions of B1G symmetry.
 There are    16 symmetry adapted cartesian basis functions of B2G symmetry.
 There are    16 symmetry adapted cartesian basis functions of B3G symmetry.
 There are     7 symmetry adapted cartesian basis functions of AU  symmetry.
 There are    27 symmetry adapted cartesian basis functions of B1U symmetry.
 There are    32 symmetry adapted cartesian basis functions of B2U symmetry.
 There are    32 symmetry adapted cartesian basis functions of B3U symmetry.
 There are    46 symmetry adapted basis functions of AG  symmetry.
 There are    17 symmetry adapted basis functions of B1G symmetry.
 There are    16 symmetry adapted basis functions of B2G symmetry.
 There are    16 symmetry adapted basis functions of B3G symmetry.
 There are     7 symmetry adapted basis functions of AU  symmetry.
 There are    26 symmetry adapted basis functions of B1U symmetry.
 There are    29 symmetry adapted basis functions of B2U symmetry.
 There are    29 symmetry adapted basis functions of B3U symmetry.
   186 basis functions,   437 primitive gaussians,   202 cartesian basis functions
    97 alpha electrons       97 beta electrons
       nuclear repulsion energy      2379.9601462196 Hartrees.
 NAtoms=    7 NActive=    7 NUniq=    3 SFac= 4.00D+00 NAtFMM=   60 NAOKFM=F Big=F
 Integral buffers will be    131072 words long.
 Raffenetti 2 integral format.
 Two-electron integral symmetry is turned on.
 ------------------------------------------------------------------------------
 Polarizable Continuum Model (PCM)
 =================================
 Model                : PCM (using non-symmetric T matrix).
 Atomic radii         : UFF (Universal Force Field).
 Polarization charges : Total charges.
 Charge compensation  : None.
 Solution method      : On-the-fly selection.
 Cavity type          : Scaled VdW (van der Waals Surface) (Alpha=1.100).
 Cavity algorithm     : GePol (No added spheres)
                        Default sphere list used, NSphG=    7.
                        Lebedev-Laikov grids with approx.  5.0 points / Ang**2.
                        Smoothing algorithm: Karplus/York (Gamma=1.0000).
                        Polarization charges: spherical gaussians, with
                                              point-specific exponents (IZeta= 3).
                        Self-potential: point-specific (ISelfS= 7).
                        Self-field    : sphere-specific E.n sum rule (ISelfD= 2).
 1st derivatives      : Analytical E(r).r(x)/FMM algorithm (CHGder, D1EAlg=3).
                        Cavity 1st derivative terms included.
 Solvent              : Water, Eps=  78.355300 Eps(inf)=   1.777849
 ------------------------------------------------------------------------------
 Spheres list:
 ISph  on   Nord     Re0    Alpha      Xe            Ye            Ze
    1  Pt      1    1.3770  1.100      0.000000      0.000000      0.000000
    2  Br      2    2.0945  1.100      0.000000      2.551842      0.000000
    3  Br      3    2.0945  1.100     -2.551842      0.000000      0.000000
    4  Br      4    2.0945  1.100      0.000000     -2.551842      0.000000
    5  Br      5    2.0945  1.100      2.551842      0.000000      0.000000
    6  Cl      6    1.9735  1.100      0.000000      0.000000      2.404695
    7  Cl      7    1.9735  1.100      0.000000      0.000000     -2.404695
 ------------------------------------------------------------------------------
 One-electron integrals computed using PRISM.
  16 Symmetry operations used in ECPInt.
 ECPInt:  NShTT=    2628 NPrTT=   15095 LenC2=    2298 LenP2D=    8882.
 LDataN:  DoStor=T MaxTD1= 6 Len=  172
 NBasis=   186 RedAO= T EigKep=  1.09D-02  NBF=    46    17    16    16     7    26    29    29
 NBsUse=   186 1.00D-06 EigRej= -1.00D+00 NBFU=    46    17    16    16     7    26    29    29
 Defaulting to unpruned grid for atomic number  78.
 Initial guess from the checkpoint file:  "/home/scr/diego/Gau-6314.chk"
 B after Tr=     0.000000    0.000000    0.000000
         Rot=    1.000000    0.000000    0.000000    0.000000 Ang=   0.00 deg.
 Initial guess orbital symmetries:
       Occupied  (A1G) (EU) (EU) (B1G) (A1G) (A2U) (EU) (EU) (A1G)
                 (B1G) (EU) (EU) (B1G) (A1G) (A2G) (A2U) (EU) (EU)
                 (EG) (EG) (B2U) (B2G) (A2U) (A1G) (EU) (EU) (A1G)
                 (B1G) (A2U) (A1G) (EU) (EU) (EG) (EG) (EU) (EU)
                 (B1G) (A1G) (A2U) (B2U) (EG) (EG) (A2G) (EU) (EU)
                 (B2G) (A1G) (EU) (EU) (A1G) (B1G) (B2G) (A2U)
                 (EG) (EG) (B2U) (EU) (EU) (A2G) (A1U) (EG) (EG)
                 (B1U) (B1G) (A1G) (EU) (EU) (A2U) (EU) (EU) (A1G)
                 (A2U) (A1G) (B1G) (EU) (EU) (A1G) (B1G) (A1G)
                 (EG) (EG) (B2G) (A2U) (EU) (EU) (EU) (EU) (A2U)
                 (B2U) (EG) (EG) (EU) (EU) (B2G) (EG) (EG) (A2G)
       Virtual   (A1G) (A1G) (B1G) (A1G) (B1G) (A1G) (A1G) (B1G)
                 (A1G) (A1G) (B1G) (B1G) (A1G) (A1G) (B1G) (B1G)
                 (A1G) (B1G) (A1G) (A1G) (A1G) (B1G) (B2G) (B2G)
                 (A2G) (B2G) (A2G) (B2G) (B2G) (A2G) (EG) (EG)
                 (EG) (EG) (EG) (EG) (EG) (EG) (EG) (EG) (EG) (EG)
                 (EG) (EG) (EG) (EG) (B1U) (A1U) (B1U) (B1U) (A1U)
                 (A2U) (A2U) (A2U) (B2U) (A2U) (B2U) (A2U) (A2U)
                 (B2U) (A2U) (A2U) (B2U) (EU) (EU) (EU) (EU) (EU)
                 (EU) (EU) (EU) (EU) (EU) (EU) (EU) (EU) (EU) (EU)
                 (EU) (EU) (EU) (EU) (EU) (EU) (EU) (EU) (EU) (EU)
                 (EU)
 ExpMin= 2.90D-02 ExpMax= 1.13D+05 ExpMxC= 1.70D+04 IAcc=3 IRadAn=         5 AccDes= 0.00D+00
 Harris functional with IExCor=  402 and IRadAn=       5 diagonalized for initial guess.
 HarFok:  IExCor=  402 AccDes= 0.00D+00 IRadAn=         5 IDoV= 1 UseB2=F ITyADJ=14
 ICtDFT=  3500011 ScaDFX=  1.000000  1.000000  1.000000  1.000000
 Defaulting to unpruned grid for atomic number  78.
 Defaulting to unpruned grid for atomic number  78.
 Defaulting to unpruned grid for atomic number  78.
 Defaulting to unpruned grid for atomic number  78.
 Defaulting to unpruned grid for atomic number  78.
 Defaulting to unpruned grid for atomic number  78.
 Defaulting to unpruned grid for atomic number  78.
 Defaulting to unpruned grid for atomic number  78.
 FoFCou: FMM=F IPFlag=           0 FMFlag=      100000 FMFlg1=           0
         NFxFlg=           0 DoJE=T BraDBF=F KetDBF=T FulRan=T
         wScrn=  0.000000 ICntrl=     500 IOpCl=  0 I1Cent=   200000004 NGrid=           0
         NMat0=    1 NMatS0=      1 NMatT0=    0 NMatD0=    1 NMtDS0=    0 NMtDT0=    0
 Petite list used in FoFCou.
 Keep R1 ints in memory in symmetry-blocked form, NReq=170706637.
 Requested convergence on RMS density matrix=1.00D-08 within 128 cycles.
 Requested convergence on MAX density matrix=1.00D-06.
 Requested convergence on             energy=1.00D-06.
 No special actions if energy rises.
 Defaulting to unpruned grid for atomic number  78.
 Defaulting to unpruned grid for atomic number  78.
 Defaulting to unpruned grid for atomic number  78.
 Defaulting to unpruned grid for atomic number  78.
 Defaulting to unpruned grid for atomic number  78.
 Defaulting to unpruned grid for atomic number  78.
 Defaulting to unpruned grid for atomic number  78.
 Defaulting to unpruned grid for atomic number  78.
 Inv3:  Mode=1 IEnd=     7357068.
 Iteration    1 A*A^-1 deviation from unit magnitude is 9.10D-15 for    479.
 Iteration    1 A*A^-1 deviation from orthogonality  is 3.14D-15 for   1371    368.
 Iteration    1 A^-1*A deviation from unit magnitude is 6.44D-15 for     95.
 Iteration    1 A^-1*A deviation from orthogonality  is 2.07D-15 for   1055     36.
 Error on total polarization charges =  0.01905
 SCF Done:  E(RB3LYP) =  -11335.2876952     A.U. after    9 cycles
            NFock=  9  Conv=0.44D-08     -V/T= 2.0086
  16 Symmetry operations used in ECPInt.
 ECPInt:  NShTT=    2628 NPrTT=   15095 LenC2=    2298 LenP2D=    8882.
 LDataN:  DoStor=T MaxTD1= 7 Len=  274
 D1PCM: PCM CHGder 1st derivatives, ID1Alg=3 FixD1E=F DoIter=F DoCFld=F I1PDM=0.
 Calling FoFJK, ICntrl=      2127 FMM=F ISym2X=1 I1Cent= 0 IOpClX= 0 NMat=1 NMatS=1 NMatT=0.
 Defaulting to unpruned grid for atomic number  78.
 Defaulting to unpruned grid for atomic number  78.
 Defaulting to unpruned grid for atomic number  78.
 Defaulting to unpruned grid for atomic number  78.
 Defaulting to unpruned grid for atomic number  78.
 Defaulting to unpruned grid for atomic number  78.
 Defaulting to unpruned grid for atomic number  78.
 Defaulting to unpruned grid for atomic number  78.
 ***** Axes restored to original set *****
 -------------------------------------------------------------------
 Center     Atomic                   Forces (Hartrees/Bohr)
 Number     Number              X              Y              Z
 -------------------------------------------------------------------
      1       78           0.000000000    0.000000000    0.000000000
      2       35           0.000000000   -0.002945311    0.000000000
      3       35           0.002945311    0.000000000    0.000000000
      4       35           0.000000000    0.002945311    0.000000000
      5       35          -0.002945311    0.000000000    0.000000000
      6       17           0.000000000    0.000000000    0.002083189
      7       17           0.000000000    0.000000000   -0.002083189
 -------------------------------------------------------------------
 Cartesian Forces:  Max     0.002945311 RMS     0.001437239

 GradGradGradGradGradGradGradGradGradGradGradGradGradGradGradGradGradGrad
 Berny optimization.
 Using GEDIIS/GDIIS optimizer.
 FormGI is forming the generalized inverse of G from B-inverse, IUseBI=4.
 Internal  Forces:  Max     0.002945311 RMS     0.001164297
 Search for a local minimum.
 Step number   3 out of a maximum of   42
 All quantities printed in internal units (Hartrees-Bohrs-Radians)
 Mixed Optimization -- RFO/linear search
 Update second derivatives using D2CorX and points    1    2    3
 DE= -5.91D-03 DEPred=-3.95D-03 R= 1.50D+00
 TightC=F SS=  1.41D+00  RLast= 2.69D-01 DXNew= 8.4853D-01 8.0601D-01
 Trust test= 1.50D+00 RLast= 2.69D-01 DXMaxT set to 8.06D-01
 ITU=  1  1  0
 Use linear search instead of GDIIS.
     Eigenvalues ---    0.06422   0.06422   0.08487   0.11810   0.12615
     Eigenvalues ---    0.12615   0.12615   0.12615   0.19509   0.19509
     Eigenvalues ---    0.19509   0.21548   0.22001   0.25000   0.25000
 RFO step:  Lambda=-1.38313170D-05 EMin= 6.42250000D-02
 Quartic linear search produced a step of  0.23649.
 Iteration  1 RMS(Cart)=  0.01147986 RMS(Int)=  0.00000000
 Iteration  2 RMS(Cart)=  0.00000000 RMS(Int)=  0.00000000
 ClnCor:  largest displacement from symmetrization is 7.38D-12 for atom     3.
 Variable       Old X    -DE/DX   Delta X   Delta X   Delta X     New X
                                 (Linear)    (Quad)   (Total)
    R1        4.82228   0.00295   0.02630   0.00264   0.02894   4.85122
    R2        4.82228   0.00295   0.02630   0.00264   0.02894   4.85122
    R3        4.82228   0.00295   0.02630   0.00264   0.02894   4.85122
    R4        4.82228   0.00295   0.02630   0.00264   0.02894   4.85122
    R5        4.54421   0.00208   0.02520  -0.00437   0.02083   4.56504
    R6        4.54421   0.00208   0.02520  -0.00437   0.02083   4.56504
    A1        1.57080   0.00000   0.00000   0.00000   0.00000   1.57080
    A2        1.57080   0.00000   0.00000   0.00000   0.00000   1.57080
    A3        1.57080   0.00000   0.00000   0.00000   0.00000   1.57080
    A4        1.57080   0.00000   0.00000   0.00000   0.00000   1.57080
    A5        1.57080   0.00000   0.00000   0.00000   0.00000   1.57080
    A6        1.57080   0.00000   0.00000   0.00000   0.00000   1.57080
    A7        1.57080   0.00000   0.00000   0.00000   0.00000   1.57080
    A8        1.57080   0.00000   0.00000   0.00000   0.00000   1.57080
    A9        1.57080   0.00000   0.00000   0.00000   0.00000   1.57080
   A10        1.57080   0.00000   0.00000   0.00000   0.00000   1.57080
   A11        1.57080   0.00000   0.00000   0.00000   0.00000   1.57080
   A12        1.57080   0.00000   0.00000   0.00000   0.00000   1.57080
   A13        3.14159   0.00000   0.00000   0.00000   0.00000   3.14159
   A14        3.14159   0.00000   0.00000   0.00000   0.00000   3.14159
   A15        3.14159   0.00000   0.00000   0.00000   0.00000   3.14159
   A16        3.14159   0.00000   0.00000   0.00000   0.00000   3.14159
   A17        3.14159   0.00000   0.00000   0.00000   0.00000   3.14159
   A18        3.14159   0.00000   0.00000   0.00000   0.00000   3.14159
    D1        1.57080   0.00000   0.00000   0.00000   0.00000   1.57080
    D2       -1.57080   0.00000   0.00000   0.00000   0.00000  -1.57080
    D3       -1.57080   0.00000   0.00000   0.00000   0.00000  -1.57080
    D4        1.57080   0.00000   0.00000   0.00000   0.00000   1.57080
    D5        1.57080   0.00000   0.00000   0.00000   0.00000   1.57080
    D6       -1.57080   0.00000   0.00000   0.00000   0.00000  -1.57080
    D7        1.57080   0.00000   0.00000   0.00000   0.00000   1.57080
    D8       -1.57080   0.00000   0.00000   0.00000   0.00000  -1.57080
         Item               Value     Threshold  Converged?
 Maximum Force            0.002945     0.000450     NO 
 RMS     Force            0.001164     0.000300     NO 
 Maximum Displacement     0.028937     0.001800     NO 
 RMS     Displacement     0.011480     0.001200     NO 
 Predicted change in Energy=-1.786339D-04
 GradGradGradGradGradGradGradGradGradGradGradGradGradGradGradGradGradGrad

                          Input orientation:                          
 ---------------------------------------------------------------------
 Center     Atomic      Atomic             Coordinates (Angstroms)
 Number     Number       Type             X           Y           Z
 ---------------------------------------------------------------------
      1         78           0       -0.319549    0.338346    0.000000
      2         35           0       -0.319549   -2.228809    0.000000
      3         35           0        2.247606    0.338346    0.000000
      4         35           0       -0.319549    2.905501    0.000000
      5         35           0       -2.886704    0.338346    0.000000
      6         17           0       -0.319549    0.338346    2.415718
      7         17           0       -0.319549    0.338346   -2.415718
 ---------------------------------------------------------------------
                    Distance matrix (angstroms):
                    1          2          3          4          5
     1  Pt   0.000000
     2  Br   2.567155   0.000000
     3  Br   2.567155   3.630505   0.000000
     4  Br   2.567155   5.134309   3.630505   0.000000
     5  Br   2.567155   3.630505   5.134309   3.630505   0.000000
     6  Cl   2.415718   3.525050   3.525050   3.525050   3.525050
     7  Cl   2.415718   3.525050   3.525050   3.525050   3.525050
                    6          7
     6  Cl   0.000000
     7  Cl   4.831435   0.000000
 Stoichiometry    Br4Cl2Pt(2-)
 Framework group  D4H[O(Pt),C4(Cl.Cl),2C2'(Br.Br)]
 Deg. of freedom     2
 Full point group                 D4H     NOp  16
 Largest Abelian subgroup         D2H     NOp   8
 Largest concise Abelian subgroup D2H     NOp   8
                         Standard orientation:                         
 ---------------------------------------------------------------------
 Center     Atomic      Atomic             Coordinates (Angstroms)
 Number     Number       Type             X           Y           Z
 ---------------------------------------------------------------------
      1         78           0        0.000000    0.000000    0.000000
      2         35           0        0.000000    2.567155    0.000000
      3         35           0       -2.567155    0.000000    0.000000
      4         35           0        0.000000   -2.567155    0.000000
      5         35           0        2.567155    0.000000    0.000000
      6         17           0        0.000000    0.000000    2.415718
      7         17           0        0.000000    0.000000   -2.415718
 ---------------------------------------------------------------------
 Rotational constants (GHZ):      0.3489408      0.3489408      0.2429267
 Basis read from rwf:  (5D, 7F)
 Pseudo-potential data read from rwf file.
 There are    55 symmetry adapted cartesian basis functions of AG  symmetry.
 There are    17 symmetry adapted cartesian basis functions of B1G symmetry.
 There are    16 symmetry adapted cartesian basis functions of B2G symmetry.
 There are    16 symmetry adapted cartesian basis functions of B3G symmetry.
 There are     7 symmetry adapted cartesian basis functions of AU  symmetry.
 There are    27 symmetry adapted cartesian basis functions of B1U symmetry.
 There are    32 symmetry adapted cartesian basis functions of B2U symmetry.
 There are    32 symmetry adapted cartesian basis functions of B3U symmetry.
 There are    46 symmetry adapted basis functions of AG  symmetry.
 There are    17 symmetry adapted basis functions of B1G symmetry.
 There are    16 symmetry adapted basis functions of B2G symmetry.
 There are    16 symmetry adapted basis functions of B3G symmetry.
 There are     7 symmetry adapted basis functions of AU  symmetry.
 There are    26 symmetry adapted basis functions of B1U symmetry.
 There are    29 symmetry adapted basis functions of B2U symmetry.
 There are    29 symmetry adapted basis functions of B3U symmetry.
   186 basis functions,   437 primitive gaussians,   202 cartesian basis functions
    97 alpha electrons       97 beta electrons
       nuclear repulsion energy      2366.4704887055 Hartrees.
 NAtoms=    7 NActive=    7 NUniq=    3 SFac= 4.00D+00 NAtFMM=   60 NAOKFM=F Big=F
 Integral buffers will be    131072 words long.
 Raffenetti 2 integral format.
 Two-electron integral symmetry is turned on.
 ------------------------------------------------------------------------------
 Polarizable Continuum Model (PCM)
 =================================
 Model                : PCM (using non-symmetric T matrix).
 Atomic radii         : UFF (Universal Force Field).
 Polarization charges : Total charges.
 Charge compensation  : None.
 Solution method      : On-the-fly selection.
 Cavity type          : Scaled VdW (van der Waals Surface) (Alpha=1.100).
 Cavity algorithm     : GePol (No added spheres)
                        Default sphere list used, NSphG=    7.
                        Lebedev-Laikov grids with approx.  5.0 points / Ang**2.
                        Smoothing algorithm: Karplus/York (Gamma=1.0000).
                        Polarization charges: spherical gaussians, with
                                              point-specific exponents (IZeta= 3).
                        Self-potential: point-specific (ISelfS= 7).
                        Self-field    : sphere-specific E.n sum rule (ISelfD= 2).
 1st derivatives      : Analytical E(r).r(x)/FMM algorithm (CHGder, D1EAlg=3).
                        Cavity 1st derivative terms included.
 Solvent              : Water, Eps=  78.355300 Eps(inf)=   1.777849
 ------------------------------------------------------------------------------
 Spheres list:
 ISph  on   Nord     Re0    Alpha      Xe            Ye            Ze
    1  Pt      1    1.3770  1.100      0.000000      0.000000      0.000000
    2  Br      2    2.0945  1.100      0.000000      2.567155      0.000000
    3  Br      3    2.0945  1.100     -2.567155      0.000000      0.000000
    4  Br      4    2.0945  1.100      0.000000     -2.567155      0.000000
    5  Br      5    2.0945  1.100      2.567155      0.000000      0.000000
    6  Cl      6    1.9735  1.100      0.000000      0.000000      2.415718
    7  Cl      7    1.9735  1.100      0.000000      0.000000     -2.415718
 ------------------------------------------------------------------------------
 One-electron integrals computed using PRISM.
  16 Symmetry operations used in ECPInt.
 ECPInt:  NShTT=    2628 NPrTT=   15095 LenC2=    2290 LenP2D=    8866.
 LDataN:  DoStor=T MaxTD1= 6 Len=  172
 NBasis=   186 RedAO= T EigKep=  1.13D-02  NBF=    46    17    16    16     7    26    29    29
 NBsUse=   186 1.00D-06 EigRej= -1.00D+00 NBFU=    46    17    16    16     7    26    29    29
 Defaulting to unpruned grid for atomic number  78.
 Initial guess from the checkpoint file:  "/home/scr/diego/Gau-6314.chk"
 B after Tr=     0.000000    0.000000    0.000000
         Rot=    1.000000    0.000000    0.000000    0.000000 Ang=   0.00 deg.
 Initial guess orbital symmetries:
       Occupied  (A1G) (EU) (EU) (B1G) (A1G) (A2U) (EU) (EU) (A1G)
                 (B1G) (EU) (EU) (B1G) (A1G) (A2G) (A2U) (EU) (EU)
                 (EG) (EG) (B2U) (B2G) (A2U) (A1G) (EU) (EU) (A1G)
                 (B1G) (A2U) (A1G) (EU) (EU) (EG) (EG) (EU) (EU)
                 (B1G) (A1G) (A2U) (B2U) (EG) (EG) (A2G) (EU) (EU)
                 (B2G) (A1G) (EU) (EU) (A1G) (B1G) (A2U) (EG) (EG)
                 (B2G) (B2U) (EU) (EU) (A2G) (A1U) (EG) (EG) (B1U)
                 (B1G) (EU) (EU) (A1G) (A2U) (EU) (EU) (A1G) (A2U)
                 (A1G) (EU) (EU) (B1G) (A1G) (B1G) (A1G) (EG) (EG)
                 (B2G) (A2U) (EU) (EU) (EU) (EU) (A2U) (B2U) (EG)
                 (EG) (B2G) (EU) (EU) (EG) (EG) (A2G)
       Virtual   (A1G) (A1G) (B1G) (A1G) (B1G) (A1G) (A1G) (B1G)
                 (A1G) (A1G) (B1G) (B1G) (A1G) (A1G) (B1G) (B1G)
                 (A1G) (A1G) (B1G) (A1G) (A1G) (B1G) (B2G) (B2G)
                 (A2G) (B2G) (A2G) (B2G) (B2G) (A2G) (EG) (EG)
                 (EG) (EG) (EG) (EG) (EG) (EG) (EG) (EG) (EG) (EG)
                 (EG) (EG) (EG) (EG) (B1U) (A1U) (B1U) (B1U) (A1U)
                 (A2U) (A2U) (A2U) (B2U) (A2U) (B2U) (A2U) (A2U)
                 (B2U) (A2U) (A2U) (B2U) (EU) (EU) (EU) (EU) (EU)
                 (EU) (EU) (EU) (EU) (EU) (EU) (EU) (EU) (EU) (EU)
                 (EU) (EU) (EU) (EU) (EU) (EU) (EU) (EU) (EU) (EU)
                 (EU)
 ExpMin= 2.90D-02 ExpMax= 1.13D+05 ExpMxC= 1.70D+04 IAcc=3 IRadAn=         5 AccDes= 0.00D+00
 Harris functional with IExCor=  402 and IRadAn=       5 diagonalized for initial guess.
 HarFok:  IExCor=  402 AccDes= 0.00D+00 IRadAn=         5 IDoV= 1 UseB2=F ITyADJ=14
 ICtDFT=  3500011 ScaDFX=  1.000000  1.000000  1.000000  1.000000
 Defaulting to unpruned grid for atomic number  78.
 Defaulting to unpruned grid for atomic number  78.
 Defaulting to unpruned grid for atomic number  78.
 Defaulting to unpruned grid for atomic number  78.
 Defaulting to unpruned grid for atomic number  78.
 Defaulting to unpruned grid for atomic number  78.
 Defaulting to unpruned grid for atomic number  78.
 Defaulting to unpruned grid for atomic number  78.
 FoFCou: FMM=F IPFlag=           0 FMFlag=      100000 FMFlg1=           0
         NFxFlg=           0 DoJE=T BraDBF=F KetDBF=T FulRan=T
         wScrn=  0.000000 ICntrl=     500 IOpCl=  0 I1Cent=   200000004 NGrid=           0
         NMat0=    1 NMatS0=      1 NMatT0=    0 NMatD0=    1 NMtDS0=    0 NMtDT0=    0
 Petite list used in FoFCou.
 Keep R1 ints in memory in symmetry-blocked form, NReq=170706637.
 Requested convergence on RMS density matrix=1.00D-08 within 128 cycles.
 Requested convergence on MAX density matrix=1.00D-06.
 Requested convergence on             energy=1.00D-06.
 No special actions if energy rises.
 Defaulting to unpruned grid for atomic number  78.
 Defaulting to unpruned grid for atomic number  78.
 Defaulting to unpruned grid for atomic number  78.
 Defaulting to unpruned grid for atomic number  78.
 Defaulting to unpruned grid for atomic number  78.
 Defaulting to unpruned grid for atomic number  78.
 Defaulting to unpruned grid for atomic number  78.
 Defaulting to unpruned grid for atomic number  78.
 Inv3:  Mode=1 IEnd=     7357068.
 Iteration    1 A*A^-1 deviation from unit magnitude is 7.44D-15 for   1098.
 Iteration    1 A*A^-1 deviation from orthogonality  is 3.25D-15 for    777    362.
 Iteration    1 A^-1*A deviation from unit magnitude is 8.10D-15 for     20.
 Iteration    1 A^-1*A deviation from orthogonality  is 1.63D-15 for    892    690.
 EnCoef did     3 forward-backward iterations
 Error on total polarization charges =  0.01889
[...]
 Low frequencies ---    0.0057   64.2699   64.2699
 ******    1 imaginary frequencies (negative Signs) ****** 
 Diagonal vibrational polarizability:
       60.3710008      60.3709991      34.1047940
 Harmonic frequencies (cm**-1), IR intensities (KM/Mole), Raman scattering
 activities (A**4/AMU), depolarization ratios for plane and unpolarized
 incident light, reduced masses (AMU), force constants (mDyne/A),
 and normal coordinates:
                      1                      2                      3
                     B2U                    EU                     EU
 Frequencies --    -36.0996                64.2699                64.2699
 Red. masses --     78.9183                75.8922                75.8922
 Frc consts  --      0.0606                 0.1847                 0.1847
 IR Inten    --      0.0000                 3.1111                 3.1111
  Atom  AN      X      Y      Z        X      Y      Z        X      Y      Z
     1  78     0.00   0.00   0.00    -0.16   0.00   0.00     0.00  -0.16   0.00
     2  35     0.00   0.00   0.50     0.59   0.00   0.00     0.00  -0.27   0.00
     3  35     0.00   0.00  -0.50    -0.27   0.00   0.00     0.00   0.59   0.00
     4  35     0.00   0.00   0.50     0.59   0.00   0.00     0.00  -0.27   0.00
     5  35     0.00   0.00  -0.50    -0.27   0.00   0.00     0.00   0.59   0.00
     6  17     0.00   0.00   0.00    -0.27   0.00   0.00     0.00  -0.27   0.00
     7  17     0.00   0.00   0.00    -0.27   0.00   0.00     0.00  -0.27   0.00
                      4                      5                      6
                     B2G                    A2U                    EG
 Frequencies --     74.0353               108.6096               112.1821
 Red. masses --     78.9183                80.5628                41.4732
 Frc consts  --      0.2549                 0.5599                 0.3075
 IR Inten    --      0.0000                 2.9671                 0.0000
  Atom  AN      X      Y      Z        X      Y      Z        X      Y      Z
     1  78     0.00   0.00   0.00     0.00   0.00   0.40     0.00   0.00   0.00
     2  35     0.50   0.00   0.00     0.00   0.00  -0.34     0.00   0.00  -0.27
     3  35     0.00  -0.50   0.00     0.00   0.00  -0.34     0.00   0.00   0.00
     4  35    -0.50   0.00   0.00     0.00   0.00  -0.34     0.00   0.00   0.27
     5  35     0.00   0.50   0.00     0.00   0.00  -0.34     0.00   0.00   0.00
     6  17     0.00   0.00   0.00     0.00   0.00   0.43     0.00  -0.65   0.00
     7  17     0.00   0.00   0.00     0.00   0.00   0.43     0.00   0.65   0.00
                      7                      8                      9
                     EG                     EU                     EU
 Frequencies --    112.1821               137.6377               137.6377
 Red. masses --     41.4732                40.0457                40.0457
 Frc consts  --      0.3075                 0.4470                 0.4470
 IR Inten    --      0.0000                 4.2111                 4.2111
  Atom  AN      X      Y      Z        X      Y      Z        X      Y      Z
     1  78     0.00   0.00   0.00     0.00   0.07   0.00     0.07   0.00   0.00
     2  35     0.00   0.00   0.00     0.00   0.22   0.00    -0.01   0.00   0.00
     3  35     0.00   0.00  -0.27     0.00  -0.01   0.00     0.22   0.00   0.00
     4  35     0.00   0.00   0.00     0.00   0.22   0.00    -0.01   0.00   0.00
     5  35     0.00   0.00   0.27     0.00  -0.01   0.00     0.22   0.00   0.00
     6  17     0.65   0.00   0.00     0.00  -0.67   0.00    -0.67   0.00   0.00
     7  17    -0.65   0.00   0.00     0.00  -0.67   0.00    -0.67   0.00   0.00
                     10                     11                     12
                     B1G                    A1G                    EU
 Frequencies --    158.9019               177.7961               209.1963
 Red. masses --     78.9183                78.1899               112.8206
 Frc consts  --      1.1740                 1.4563                 2.9090
 IR Inten    --      0.0000                 0.0000                55.4864
  Atom  AN      X      Y      Z        X      Y      Z        X      Y      Z
     1  78     0.00   0.00   0.00     0.00   0.00   0.00     0.00   0.57   0.00
     2  35     0.00   0.50   0.00     0.00  -0.50   0.00     0.00  -0.53   0.00
     3  35     0.50   0.00   0.00     0.50   0.00   0.00     0.00  -0.08   0.00
     4  35     0.00  -0.50   0.00     0.00   0.50   0.00     0.00  -0.53   0.00
     5  35    -0.50   0.00   0.00    -0.50   0.00   0.00     0.00  -0.08   0.00
     6  17     0.00   0.00   0.00     0.00   0.00   0.09     0.00  -0.23   0.00
     7  17     0.00   0.00   0.00     0.00   0.00  -0.09     0.00  -0.23   0.00
                     13                     14                     15
                     EU                     A1G                    A2U
 Frequencies --    209.1963               292.4815               303.3505
 Red. masses --    112.8206                35.1138                45.6045
 Frc consts  --      2.9090                 1.7698                 2.4726
 IR Inten    --     55.4864                 0.0000                93.4730
  Atom  AN      X      Y      Z        X      Y      Z        X      Y      Z
     1  78     0.57   0.00   0.00     0.00   0.00   0.00     0.00   0.00   0.26
     2  35    -0.08   0.00   0.00     0.00   0.03   0.00     0.00   0.00  -0.01
     3  35    -0.53   0.00   0.00    -0.03   0.00   0.00     0.00   0.00  -0.01
     4  35    -0.08   0.00   0.00     0.00  -0.03   0.00     0.00   0.00  -0.01
     5  35    -0.53   0.00   0.00     0.03   0.00   0.00     0.00   0.00  -0.01
     6  17    -0.23   0.00   0.00     0.00   0.00   0.71     0.00   0.00  -0.68
     7  17    -0.23   0.00   0.00     0.00   0.00  -0.71     0.00   0.00  -0.68

 -------------------
 - Thermochemistry -
 -------------------
 Temperature   298.150 Kelvin.  Pressure   1.00000 Atm.
 Atom     1 has atomic number 78 and mass 194.96480
 Atom     2 has atomic number 35 and mass  78.91834
 Atom     3 has atomic number 35 and mass  78.91834
 Atom     4 has atomic number 35 and mass  78.91834
 Atom     5 has atomic number 35 and mass  78.91834
 Atom     6 has atomic number 17 and mass  34.96885
 Atom     7 has atomic number 17 and mass  34.96885
 Molecular mass:   580.57585 amu.
 Principal axes and moments of inertia in atomic units:
                           1         2         3
     Eigenvalues --  5166.675825166.675827423.28787
           X            0.90270   0.43028   0.00000
           Y           -0.43028   0.90270   0.00000
           Z            0.00000   0.00000   1.00000
 This molecule is an oblate symmetric top.
 Rotational symmetry number  8.
 Warning -- assumption of classical behavior for rotation
           may cause significant error
 Rotational temperatures (Kelvin)      0.01676     0.01676     0.01167
 Rotational constants (GHZ):           0.34930     0.34930     0.24312
    1 imaginary frequencies ignored.
 Zero-point vibrational energy      12930.1 (Joules/Mol)
                                    3.09037 (Kcal/Mol)
 Warning -- explicit consideration of  14 degrees of freedom as
           vibrations may cause significant error
 Vibrational temperatures:     92.47    92.47   106.52   156.26   161.40
          (Kelvin)            161.40   198.03   198.03   228.62   255.81
                              300.99   300.99   420.82   436.45
 
 Zero-point correction=                           0.004925 (Hartree/Particle)
 Thermal correction to Energy=                    0.016788
 Thermal correction to Enthalpy=                  0.017732
 Thermal correction to Gibbs Free Energy=        -0.036654
 Sum of electronic and zero-point Energies=         -11335.282962
 Sum of electronic and thermal Energies=            -11335.271099
 Sum of electronic and thermal Enthalpies=          -11335.270155
 Sum of electronic and thermal Free Energies=       -11335.324541
 
                     E (Thermal)             CV                S
                      KCal/Mol        Cal/Mol-Kelvin    Cal/Mol-Kelvin
 Total                   10.535             32.294            114.465
 Electronic               0.000              0.000              0.000
 Translational            0.889              2.981             44.961
 Rotational               0.889              2.981             29.517
 Vibrational              8.757             26.332             39.988
 Vibration     1          0.597              1.971              4.322
 Vibration     2          0.597              1.971              4.322
 Vibration     3          0.599              1.966              4.043
 Vibration     4          0.606              1.942              3.294
 Vibration     5          0.607              1.939              3.231
 Vibration     6          0.607              1.939              3.231
 Vibration     7          0.614              1.916              2.836
 Vibration     8          0.614              1.916              2.836
 Vibration     9          0.621              1.893              2.563
 Vibration    10          0.628              1.870              2.351
 Vibration    11          0.642              1.827              2.051
 Vibration    12          0.642              1.827              2.051
 Vibration    13          0.688              1.688              1.460
 Vibration    14          0.695              1.667              1.398
                       Q            Log10(Q)             Ln(Q)
 Total Bot       0.723830D+17         16.859636         38.820747
 Total V=0       0.133319D+20         19.124892         44.036692
 Vib (Bot)       0.208991D+03          2.320127          5.342290
 Vib (Bot)    1  0.321140D+01          0.506695          1.166708
 Vib (Bot)    2  0.321140D+01          0.506695          1.166708
 Vib (Bot)    3  0.278417D+01          0.444696          1.023950
 Vib (Bot)    4  0.188632D+01          0.275614          0.634625
 Vib (Bot)    5  0.182485D+01          0.261228          0.601499
 Vib (Bot)    6  0.182485D+01          0.261228          0.601499
 Vib (Bot)    7  0.147826D+01          0.169751          0.390866
 Vib (Bot)    8  0.147826D+01          0.169751          0.390866
 Vib (Bot)    9  0.127269D+01          0.104724          0.241137
 Vib (Bot)   10  0.113052D+01          0.053280          0.122681
 Vib (Bot)   11  0.949731D+00         -0.022399         -0.051577
 Vib (Bot)   12  0.949731D+00         -0.022399         -0.051577
 Vib (Bot)   13  0.652943D+00         -0.185125         -0.426265
 Vib (Bot)   14  0.625734D+00         -0.203610         -0.468830
 Vib (V=0)       0.384931D+05          4.585383         10.558234
 Vib (V=0)    1  0.375009D+01          0.574042          1.321781
 Vib (V=0)    2  0.375009D+01          0.574042          1.321781
 Vib (V=0)    3  0.332871D+01          0.522276          1.202585
 Vib (V=0)    4  0.245146D+01          0.389424          0.896683
 Vib (V=0)    5  0.239211D+01          0.378782          0.872177
 Vib (V=0)    6  0.239211D+01          0.378782          0.872177
 Vib (V=0)    7  0.206053D+01          0.313979          0.722963
 Vib (V=0)    8  0.206053D+01          0.313979          0.722963
 Vib (V=0)    9  0.186739D+01          0.271235          0.624541
 Vib (V=0)   10  0.173616D+01          0.239589          0.551674
 Vib (V=0)   11  0.157331D+01          0.196814          0.453180
 Vib (V=0)   12  0.157331D+01          0.196814          0.453180
 Vib (V=0)   13  0.132240D+01          0.121361          0.279445
 Vib (V=0)   14  0.130096D+01          0.114265          0.263105
 Electronic      0.100000D+01          0.000000          0.000000
 Translational   0.549849D+09          8.740244         20.125155
 Rotational      0.629892D+06          5.799266         13.353303
 ***** Axes restored to original set *****
 -------------------------------------------------------------------
 Center     Atomic                   Forces (Hartrees/Bohr)
 Number     Number              X              Y              Z
 -------------------------------------------------------------------
      1       78           0.000000000    0.000000000    0.000000000
      2       35           0.000000000   -0.000081702    0.000000000
      3       35           0.000081702    0.000000000    0.000000000
      4       35           0.000000000    0.000081702    0.000000000
      5       35          -0.000081702    0.000000000    0.000000000
      6       17           0.000000000    0.000000000   -0.000216852
      7       17           0.000000000    0.000000000    0.000216852
 -------------------------------------------------------------------
 Cartesian Forces:  Max     0.000216852 RMS     0.000075829
 FormGI is forming the generalized inverse of G from B-inverse, IUseBI=4.

 GradGradGradGradGradGradGradGradGradGradGradGradGradGradGradGradGradGrad
 Berny optimization.
 Internal  Forces:  Max     0.000216852 RMS     0.000061429
 Search for a local minimum.
 Step number   1 out of a maximum of    2
 All quantities printed in internal units (Hartrees-Bohrs-Radians)
 Second derivative matrix not updated -- analytic derivatives used.
 ITU=  0
     Eigenvalues ---   -0.02278   0.02871   0.02871   0.03211   0.06280
     Eigenvalues ---    0.06280   0.07541   0.08415   0.09159   0.10075
     Eigenvalues ---    0.10304   0.10304   0.11503   0.11503   0.11669
 Eigenvalue     1 is  -2.28D-02 should be greater than     0.000000 Eigenvector:
                          A16       A17       A3        A4        A10
   1                    0.50000   0.50000  -0.25000   0.25000   0.25000
                          A9        A6        A7        A12       A11
   1                   -0.25000   0.25000  -0.25000  -0.25000   0.25000
 Angle between quadratic step and forces=   6.51 degrees.
 Linear search not attempted -- first point.
 Iteration  1 RMS(Cart)=  0.00061906 RMS(Int)=  0.00000000
 Iteration  2 RMS(Cart)=  0.00000000 RMS(Int)=  0.00000000
 ClnCor:  largest displacement from symmetrization is 6.34D-11 for atom     7.
 Variable       Old X    -DE/DX   Delta X   Delta X   Delta X     New X
                                 (Linear)    (Quad)   (Total)
    R1        4.84930   0.00008   0.00000   0.00099   0.00099   4.85029
    R2        4.84930   0.00008   0.00000   0.00099   0.00099   4.85029
    R3        4.84930   0.00008   0.00000   0.00099   0.00099   4.85029
    R4        4.84930   0.00008   0.00000   0.00099   0.00099   4.85029
    R5        4.56122  -0.00022   0.00000  -0.00204  -0.00204   4.55918
    R6        4.56122  -0.00022   0.00000  -0.00204  -0.00204   4.55918
    A1        1.57080   0.00000   0.00000   0.00000   0.00000   1.57080
    A2        1.57080   0.00000   0.00000   0.00000   0.00000   1.57080
    A3        1.57080   0.00000   0.00000   0.00000   0.00000   1.57080
    A4        1.57080   0.00000   0.00000   0.00000   0.00000   1.57080
    A5        1.57080   0.00000   0.00000   0.00000   0.00000   1.57080
    A6        1.57080   0.00000   0.00000   0.00000   0.00000   1.57080
    A7        1.57080   0.00000   0.00000   0.00000   0.00000   1.57080
    A8        1.57080   0.00000   0.00000   0.00000   0.00000   1.57080
    A9        1.57080   0.00000   0.00000   0.00000   0.00000   1.57080
   A10        1.57080   0.00000   0.00000   0.00000   0.00000   1.57080
   A11        1.57080   0.00000   0.00000   0.00000   0.00000   1.57080
   A12        1.57080   0.00000   0.00000   0.00000   0.00000   1.57080
   A13        3.14159   0.00000   0.00000   0.00000   0.00000   3.14159
   A14        3.14159   0.00000   0.00000   0.00000   0.00000   3.14159
   A15        3.14159   0.00000   0.00000   0.00000   0.00000   3.14159
   A16        3.14159   0.00000   0.00000   0.00000   0.00000   3.14159
   A17        3.14159   0.00000   0.00000   0.00000   0.00000   3.14159
   A18        3.14159   0.00000   0.00000   0.00000   0.00000   3.14159
    D1        1.57080   0.00000   0.00000   0.00000   0.00000   1.57080
    D2       -1.57080   0.00000   0.00000   0.00000   0.00000  -1.57080
    D3       -1.57080   0.00000   0.00000   0.00000   0.00000  -1.57080
    D4        1.57080   0.00000   0.00000   0.00000   0.00000   1.57080
    D5        1.57080   0.00000   0.00000   0.00000   0.00000   1.57080
    D6       -1.57080   0.00000   0.00000   0.00000   0.00000  -1.57080
    D7        1.57080   0.00000   0.00000   0.00000   0.00000   1.57080
    D8       -1.57080   0.00000   0.00000   0.00000   0.00000  -1.57080
         Item               Value     Threshold  Converged?
 Maximum Force            0.000217     0.000450     YES
 RMS     Force            0.000061     0.000300     YES
 Maximum Displacement     0.002039     0.001800     NO 
 RMS     Displacement     0.000619     0.001200     YES
 Predicted change in Energy=-6.045181D-07
 GradGradGradGradGradGradGradGradGradGradGradGradGradGradGradGradGradGrad

 1\1\GINC-NEQC17\Freq\RB3LYP\Gen\Br4Cl2Pt1(2-)\DIEGO\18-Aug-2021\0\\#N 
 Geom=AllCheck Guess=TCheck SCRF=Check GenChk RB3LYP/ChkBas Freq\\Estru
 tura 24\\-2,1\Pt,-0.31954889,0.33834586,0.\Br,-0.31954889,-2.227794023
 6,0.\Br,2.2465909936,0.33834586,0.\Br,-0.31954889,2.9044857436,0.\Br,-
 2.8856887736,0.33834586,0.\Cl,-0.31954889,0.33834586,2.4136911412\Cl,-
 0.31954889,0.33834586,-2.4136911412\\Version=EM64L-G09RevD.01\State=1-
 A1G\HF=-11335.2878872\RMSD=1.189e-09\RMSF=7.583e-05\ZeroPoint=0.004924
 8\Thermal=0.016788\Dipole=0.,0.,0.\DipoleDeriv=1.4986493,0.,0.,0.,1.49
 86493,0.,0.,0.,1.1570512,-0.1126598,0.,0.,0.,-1.5222718,0.,0.,0.,-0.13
 46676,-1.5222718,0.,0.,0.,-0.1126598,0.,0.,0.,-0.1346676,-0.1126598,0.
 ,0.,0.,-1.5222718,0.,0.,0.,-0.1346676,-1.5222718,0.,0.,0.,-0.1126598,0
 .,0.,0.,-0.1346676,-0.114393,0.,0.,0.,-0.114393,0.,0.,0.,-1.3091903,-0
 .114393,0.,0.,0.,-0.114393,0.,0.,0.,-1.3091903\Polar=249.8825711,0.,24
 9.8825709,0.,0.,186.3558456\PG=D04H [O(Pt1),C4(Cl1.Cl1),2C2'(Br1.Br1)]
 \NImag=1\\0.18982633,0.,0.18982632,0.,0.,0.22585095,-0.01419802,0.,0.,
 0.00720852,0.,-0.06273937,0.,0.,0.07443894,0.,0.,-0.01389149,0.,0.,0.0
 0325600,-0.06273937,0.,0.,0.00180720,-0.00504832,0.,0.07443894,0.,-0.0
 1419802,0.,-0.00606395,0.00180720,0.,0.,0.00720852,0.,0.,-0.01389149,0
 .,0.,0.00501686,0.,0.,0.00325601,-0.01419802,0.,0.,0.00296648,0.,0.,0.
 00180720,0.00606395,0.,0.00720852,0.,-0.06273937,0.,0.,-0.01106744,0.,
 0.00504832,0.00180720,0.,0.,0.07443894,0.,0.,-0.01389149,0.,0.,0.00288
 571,0.,0.,0.00501686,0.,0.,0.00325600,-0.06273937,0.,0.,0.00180720,0.0
 0504832,0.,-0.01106744,0.,0.,0.00180720,-0.00504832,0.,0.07443894,0.,-
 0.01419802,0.,0.00606395,0.00180720,0.,0.,0.00296648,0.,-0.00606395,0.
 00180720,0.,0.,0.00720852,0.,0.,-0.01389149,0.,0.,0.00501686,0.,0.,0.0
 0288571,0.,0.,0.00501686,0.,0.,0.00325601,-0.01797577,0.,0.,0.00020432
 ,0.,0.,-0.00212326,0.,0.00561909,0.00020432,0.,0.,-0.00212326,0.,-0.00
 561909,0.01778223,0.,-0.01797577,0.,0.,-0.00212326,-0.00561909,0.,0.00
 020432,0.,0.,-0.00212326,0.00561909,0.,0.00020432,0.,0.,0.01778222,0.,
 0.,-0.08514250,0.,-0.00325160,-0.00114197,0.00325160,0.,-0.00114197,0.
 ,0.00325160,-0.00114197,-0.00325160,0.,-0.00114197,0.,0.,0.10119369,-0
 .01797577,0.,0.,0.00020432,0.,0.,-0.00212326,0.,-0.00561909,0.00020432
 ,0.,0.,-0.00212326,0.,0.00561909,0.00403144,0.,0.,0.01778223,0.,-0.017
 97577,0.,0.,-0.00212326,0.00561909,0.,0.00020432,0.,0.,-0.00212326,-0.
 00561909,0.,0.00020432,0.,0.,0.00403144,0.,0.,0.01778222,0.,0.,-0.0851
 4250,0.,0.00325160,-0.00114197,-0.00325160,0.,-0.00114197,0.,-0.003251
 60,-0.00114197,0.00325160,0.,-0.00114197,0.,0.,-0.01148329,0.,0.,0.101
 19369\\0.,0.,0.,0.,0.00008170,0.,-0.00008170,0.,0.,0.,-0.00008170,0.,0
 .00008170,0.,0.,0.,0.,0.00021685,0.,0.,-0.00021685\\\@


 THE SECRET OF SUCCESS IN LIFE IS TO EAT WHAT YOU LIKE, AND LET THE FOOD
 FIGHT IT OUT INSIDE YOU. -- FROM A FORTUNE COOKIE
 Job cpu time:       0 days  0 hours  5 minutes 30.0 seconds.
 File lengths (MBytes):  RWF=     95 Int=      0 D2E=      0 Chk=      7 Scr=      1
 Normal termination of Gaussian 09 at Wed Aug 18 03:31:28 2021.
