 Entering Gaussian System, Link 0=g09
 Input=25_D2O.com
 Output=25_D2O.log
 Initial command:
 /scr/programs/g09/l1.exe /scr/guest/Gau-29959.inp -scrdir=/scr/guest/
 Entering Link 1 = /scr/programs/g09/l1.exe PID=     29960.
  
 Copyright (c) 1988,1990,1992,1993,1995,1998,2003,2009, Gaussian, Inc.
                  All Rights Reserved.
  
 This is part of the Gaussian(R) 09 program.  It is based on
 the Gaussian(R) 03 system (copyright 2003, Gaussian, Inc.),
 the Gaussian(R) 98 system (copyright 1998, Gaussian, Inc.),
 the Gaussian(R) 94 system (copyright 1995, Gaussian, Inc.),
 the Gaussian 92(TM) system (copyright 1992, Gaussian, Inc.),
 the Gaussian 90(TM) system (copyright 1990, Gaussian, Inc.),
 the Gaussian 88(TM) system (copyright 1988, Gaussian, Inc.),
 the Gaussian 86(TM) system (copyright 1986, Carnegie Mellon
 University), and the Gaussian 82(TM) system (copyright 1983,
 Carnegie Mellon University). Gaussian is a federally registered
 trademark of Gaussian, Inc.
  
 This software contains proprietary and confidential information,
 including trade secrets, belonging to Gaussian, Inc.
  
 This software is provided under written license and may be
 used, copied, transmitted, or stored only in accord with that
 written license.
  
 The following legend is applicable only to US Government
 contracts under FAR:
  
                    RESTRICTED RIGHTS LEGEND
  
 Use, reproduction and disclosure by the US Government is
 subject to restrictions as set forth in subparagraphs (a)
 and (c) of the Commercial Computer Software - Restricted
 Rights clause in FAR 52.227-19.
  
 Gaussian, Inc.
 340 Quinnipiac St., Bldg. 40, Wallingford CT 06492
  
  
 ---------------------------------------------------------------
 Warning -- This program may not be used in any manner that
 competes with the business of Gaussian, Inc. or will provide
 assistance to any competitor of Gaussian, Inc.  The licensee
 of this program is prohibited from giving any competitor of
 Gaussian, Inc. access to this program.  By using this program,
 the user acknowledges that Gaussian, Inc. is engaged in the
 business of creating and licensing software in the field of
 computational chemistry and represents and warrants to the
 licensee that it is not a competitor of Gaussian, Inc. and that
 it will not use this program in any manner prohibited above.
 ---------------------------------------------------------------
  

 Cite this work as:
 Gaussian 09, Revision A.02,
 M. J. Frisch, G. W. Trucks, H. B. Schlegel, G. E. Scuseria, 
 M. A. Robb, J. R. Cheeseman, G. Scalmani, V. Barone, B. Mennucci, 
 G. A. Petersson, H. Nakatsuji, M. Caricato, X. Li, H. P. Hratchian, 
 A. F. Izmaylov, J. Bloino, G. Zheng, J. L. Sonnenberg, M. Hada, 
 M. Ehara, K. Toyota, R. Fukuda, J. Hasegawa, M. Ishida, T. Nakajima, 
 Y. Honda, O. Kitao, H. Nakai, T. Vreven, J. A. Montgomery, Jr., 
 J. E. Peralta, F. Ogliaro, M. Bearpark, J. J. Heyd, E. Brothers, 
 K. N. Kudin, V. N. Staroverov, R. Kobayashi, J. Normand, 
 K. Raghavachari, A. Rendell, J. C. Burant, S. S. Iyengar, J. Tomasi, 
 M. Cossi, N. Rega, J. M. Millam, M. Klene, J. E. Knox, J. B. Cross, 
 V. Bakken, C. Adamo, J. Jaramillo, R. Gomperts, R. E. Stratmann, 
 O. Yazyev, A. J. Austin, R. Cammi, C. Pomelli, J. W. Ochterski, 
 R. L. Martin, K. Morokuma, V. G. Zakrzewski, G. A. Voth, 
 P. Salvador, J. J. Dannenberg, S. Dapprich, A. D. Daniels, 
 O. Farkas, J. B. Foresman, J. V. Ortiz, J. Cioslowski, 
 and D. J. Fox, Gaussian, Inc., Wallingford CT, 2009.
 
 ******************************************
 Gaussian 09:  EM64L-G09RevA.02 11-Jun-2009
                 1-Dec-2021 
 ******************************************
 %mem=30gb
 %nproc=24
 Will use up to   24 processors via shared memory.
 ------------------------------------------------------------
 #b3lyp/gen pseudo=read opt freq=noraman scrf=(solvent=water)
 ------------------------------------------------------------
 1/14=-1,18=20,19=15,26=3,38=1/1,3;
 2/9=110,12=2,17=6,18=5,40=1/2;
 3/5=7,11=2,16=1,17=8,25=1,30=1,70=2201,71=1,72=1,74=-5/1,2,3;
 4//1;
 5/5=2,38=5,53=1/2;
 6/7=2,8=2,9=2,10=2,28=1/1;
 7//1,2,3,16;
 1/14=-1,18=20,19=15/3(2);
 2/9=110/2;
 99//99;
 2/9=110/2;
 3/5=7,6=1,11=2,16=1,17=8,25=1,30=1,70=2205,71=1,72=1,74=-5,82=7/1,2,3;
 4/5=5,16=3/1;
 5/5=2,38=5,53=1/2;
 7//1,2,3,16;
 1/14=-1,18=20,19=15/3(-5);
 2/9=110/2;
 6/7=2,8=2,9=2,10=2,19=2,28=1/1;
 99/9=1/99;
 ------------
 Estrutura 25
 ------------
 Symbolic Z-matrix:
 Charge = -2 Multiplicity = 1
 Pt                    0.04956   0.00738  -0.04323 
 N                    -1.81673   0.03739   0.76207 
 O                    -2.25428   0.95637   1.14244 
 O                    -2.30686  -0.91605   0.94222 
 Cl                    1.22743  -0.62291   2.01256 
 Cl                    0.48754   2.29948   0.57556 
 Cl                   -0.96632   0.73273  -2.16277 
 Cl                   -0.30886  -2.33271  -0.53761 
 Cl                    2.22733  -0.14481  -0.9842 
 

 GradGradGradGradGradGradGradGradGradGradGradGradGradGradGradGradGradGrad
 Berny optimization.
 Initialization pass.
                           ----------------------------
                           !    Initial Parameters    !
                           ! (Angstroms and Degrees)  !
 --------------------------                            --------------------------
 ! Name  Definition              Value          Derivative Info.                !
 --------------------------------------------------------------------------------
 ! R1    R(1,2)                  2.0328         estimate D2E/DX2                !
 ! R2    R(1,5)                  2.4517         estimate D2E/DX2                !
 ! R3    R(1,6)                  2.4142         estimate D2E/DX2                !
 ! R4    R(1,7)                  2.4598         estimate D2E/DX2                !
 ! R5    R(1,8)                  2.4184         estimate D2E/DX2                !
 ! R6    R(1,9)                  2.3772         estimate D2E/DX2                !
 ! R7    R(2,3)                  1.0866         estimate D2E/DX2                !
 ! R8    R(2,4)                  1.0871         estimate D2E/DX2                !
 ! A1    A(2,1,5)               96.4705         estimate D2E/DX2                !
 ! A2    A(2,1,6)               92.9233         estimate D2E/DX2                !
 ! A3    A(2,1,7)               87.5836         estimate D2E/DX2                !
 ! A4    A(2,1,8)               87.6621         estimate D2E/DX2                !
 ! A5    A(5,1,6)               86.6749         estimate D2E/DX2                !
 ! A6    A(5,1,8)               89.6483         estimate D2E/DX2                !
 ! A7    A(5,1,9)               82.8382         estimate D2E/DX2                !
 ! A8    A(6,1,7)               90.9059         estimate D2E/DX2                !
 ! A9    A(6,1,9)               89.773          estimate D2E/DX2                !
 ! A10   A(7,1,8)               92.75           estimate D2E/DX2                !
 ! A11   A(7,1,9)               93.2185         estimate D2E/DX2                !
 ! A12   A(8,1,9)               89.5938         estimate D2E/DX2                !
 ! A13   A(1,2,3)              121.3896         estimate D2E/DX2                !
 ! A14   A(1,2,4)              117.8158         estimate D2E/DX2                !
 ! A15   A(3,2,4)              120.1467         estimate D2E/DX2                !
 ! D1    D(5,1,2,3)             93.9657         estimate D2E/DX2                !
 ! D2    D(5,1,2,4)            -76.818          estimate D2E/DX2                !
 ! D3    D(6,1,2,3)              6.9842         estimate D2E/DX2                !
 ! D4    D(6,1,2,4)           -163.7995         estimate D2E/DX2                !
 ! D5    D(7,1,2,3)            -83.8002         estimate D2E/DX2                !
 ! D6    D(7,1,2,4)            105.416          estimate D2E/DX2                !
 ! D7    D(8,1,2,3)           -176.6538         estimate D2E/DX2                !
 ! D8    D(8,1,2,4)             12.5624         estimate D2E/DX2                !
 --------------------------------------------------------------------------------
 Trust Radius=3.00D-01 FncErr=1.00D-07 GrdErr=1.00D-06
 Number of steps in this run=  41 maximum allowed number of steps= 100.
 GradGradGradGradGradGradGradGradGradGradGradGradGradGradGradGradGradGrad

                          Input orientation:                          
 ---------------------------------------------------------------------
 Center     Atomic      Atomic             Coordinates (Angstroms)
 Number     Number       Type             X           Y           Z
 ---------------------------------------------------------------------
      1         78           0        0.049556    0.007375   -0.043229
      2          7           0       -1.816732    0.037390    0.762068
      3          8           0       -2.254283    0.956374    1.142437
      4          8           0       -2.306860   -0.916048    0.942220
      5         17           0        1.227427   -0.622905    2.012556
      6         17           0        0.487535    2.299478    0.575560
      7         17           0       -0.966317    0.732730   -2.162770
      8         17           0       -0.308864   -2.332708   -0.537611
      9         17           0        2.227332   -0.144809   -0.984199
 ---------------------------------------------------------------------
                    Distance matrix (angstroms):
                    1          2          3          4          5
     1  Pt   0.000000
     2  N    2.032839   0.000000
     3  O    2.759362   1.086583   0.000000
     4  O    2.715974   1.087071   1.883830   0.000000
     5  Cl   2.451711   3.356578   3.920910   3.704421   0.000000
     6  Cl   2.414221   3.234420   3.105293   4.275826   3.339569
     7  Cl   2.459795   3.124321   3.554331   3.762511   4.907505
     8  Cl   2.418443   3.095189   4.174359   2.861610   3.433215
     9  Cl   2.377245   4.408752   5.081344   4.986461   3.195141
                    6          7          8          9
     6  Cl   0.000000
     7  Cl   3.473735   0.000000
     8  Cl   4.830171   3.531331   0.000000
     9  Cl   3.381461   3.515466   3.379147   0.000000
 Stoichiometry    Cl5NO2Pt(2-)
 Framework group  C1[X(Cl5NO2Pt)]
 Deg. of freedom    21
 Full point group                 C1      NOp   1
 Largest Abelian subgroup         C1      NOp   1
 Largest concise Abelian subgroup C1      NOp   1
                         Standard orientation:                         
 ---------------------------------------------------------------------
 Center     Atomic      Atomic             Coordinates (Angstroms)
 Number     Number       Type             X           Y           Z
 ---------------------------------------------------------------------
      1         78           0        0.049556   -0.007375    0.043229
      2          7           0       -1.816732   -0.037391   -0.762068
      3          8           0       -2.254283   -0.956375   -1.142437
      4          8           0       -2.306860    0.916047   -0.942220
      5         17           0        1.227427    0.622905   -2.012556
      6         17           0        0.487535   -2.299478   -0.575560
      7         17           0       -0.966317   -0.732730    2.162770
      8         17           0       -0.308864    2.332708    0.537611
      9         17           0        2.227332    0.144809    0.984199
 ---------------------------------------------------------------------
 Rotational constants (GHZ):      0.6012294      0.5692253      0.5493561
 General basis read from cards:  (5D, 7F)
 ======================================================================================================
                                       Pseudopotential Parameters
 ======================================================================================================
  Center     Atomic      Valence      Angular      Power
  Number     Number     Electrons     Momentum     of R      Exponent        Coefficient   SO-Coeffient
 ======================================================================================================
    1         78           18
                                      G and up 
                                                     1      728.9394056       -0.16192680    0.00000000
                                                     2      320.6567800    -1320.28738520    0.00000000
                                                     2       52.8680174     -298.31781350    0.00000000
                                                     2       12.0280128      -87.58370650    0.00000000
                                                     2        3.5238913       -8.14932740    0.00000000
                                      S - G
                                                     0      409.4437358        2.73342180    0.00000000
                                                     1      274.5419231       59.70243290    0.00000000
                                                     2      127.5658570      891.45895500    0.00000000
                                                     2       32.9036631      368.44676560    0.00000000
                                                     2        5.0593880      238.02630900    0.00000000
                                                     2        4.1506556     -107.05564540    0.00000000
                                      P - G
                                                     0      466.1728892        1.88785680    0.00000000
                                                     1      120.7888259       76.01386290    0.00000000
                                                     2       36.4118791      343.55111160    0.00000000
                                                     2        5.6985408      119.49117860    0.00000000
                                      D - G
                                                     0      249.5650763        2.93436780    0.00000000
                                                     1      126.6678585       59.33065710    0.00000000
                                                     2       63.1430586      452.44451940    0.00000000
                                                     2       17.9059470      210.47694790    0.00000000
                                                     2        4.2239373       58.62541120    0.00000000
                                      F - G
                                                     0      121.8158799        3.95342530    0.00000000
                                                     1       60.8757030       53.85551820    0.00000000
                                                     2       31.4767147      247.43051330    0.00000000
                                                     2        9.8811751      127.81879760    0.00000000
                                                     2        2.7319874       15.37720460    0.00000000
    2          7
                                   No pseudopotential on this center.
    3          8
                                   No pseudopotential on this center.
    4          8
                                   No pseudopotential on this center.
    5         17
                                   No pseudopotential on this center.
    6         17
                                   No pseudopotential on this center.
    7         17
                                   No pseudopotential on this center.
    8         17
                                   No pseudopotential on this center.
    9         17
                                   No pseudopotential on this center.
 ======================================================================================================
 There are   154 symmetry adapted basis functions of A   symmetry.
 Integral buffers will be    131072 words long.
 Raffenetti 2 integral format.
 Two-electron integral symmetry is turned on.
   154 basis functions,   303 primitive gaussians,   164 cartesian basis functions
    64 alpha electrons       64 beta electrons
       nuclear repulsion energy      1198.5169362796 Hartrees.
 NAtoms=    9 NActive=    9 NUniq=    9 SFac= 7.50D-01 NAtFMM=   80 NAOKFM=F Big=F
 ------------------------------------------------------------------------------
 Polarizable Continuum Model (PCM)
 =================================
 Model                : PCM.
 Atomic radii         : UFF (Universal Force Field).
 Polarization charges : Total charges.
 Charge compensation  : None.
 Solution method      : Matrix inversion.
 Cavity type          : Scaled VdW (van der Waals Surface) (Alpha=1.100).
 Cavity algorithm     : GePol (No added spheres)
                        Default sphere list used, NSphG=    9.
                        Lebedev-Laikov grids with approx.  5.0 points / Ang**2.
                        Smoothing algorithm: Karplus/York (Gamma=1.0000).
                        Polarization charges: spherical gaussians, with
                                              point-specific exponents (IZeta= 3).
                        Self-potential: point-specific (ISelfS= 7).
                        Self-field    : sphere-specific E.n sum rule (ISelfD= 2).
 1st derivatives      : Analytical E(r).r(x)/FMM algorithm (CHGder, D1EAlg=3).
                        Cavity 1st derivative terms included.
 Solvent              : Water, Eps=  78.355300 Eps(inf)=   1.777849
 ------------------------------------------------------------------------------
 Spheres list:
 ISph  on   Nord    Re0     Alpha      Xe            Ye            Ze
    1  Pt      1    1.377   1.100      0.049556     -0.007375      0.043229
    2   N      2    1.830   1.100     -1.816732     -0.037391     -0.762068
    3   O      3    1.750   1.100     -2.254283     -0.956375     -1.142437
    4   O      4    1.750   1.100     -2.306860      0.916047     -0.942220
    5  Cl      5    1.974   1.100      1.227427      0.622905     -2.012556
    6  Cl      6    1.974   1.100      0.487535     -2.299478     -0.575560
    7  Cl      7    1.974   1.100     -0.966317     -0.732730      2.162770
    8  Cl      8    1.974   1.100     -0.308864      2.332708      0.537611
    9  Cl      9    1.974   1.100      2.227332      0.144809      0.984199
 ------------------------------------------------------------------------------
 One-electron integrals computed using PRISM.
   1 Symmetry operations used in ECPInt.
 ECPInt:  NShTT=    2211 NPrTT=   10318 LenC2=    2081 LenP2D=    6955.
 LDataN:  DoStor=T MaxTD1= 6 Len=  172
 NBasis=   154 RedAO= T  NBF=   154
 NBsUse=   154 1.00D-06 NBFU=   154
 Defaulting to unpruned grid for atomic number  78.
 Harris functional with IExCor=  402 diagonalized for initial guess.
 ExpMin= 2.90D-02 ExpMax= 1.04D+04 ExpMxC= 1.57D+03 IAcc=3 IRadAn=         0 AccDes= 0.00D+00
 HarFok:  IExCor=  402 AccDes= 0.00D+00 IRadAn=         0 IDoV= 1
 ScaDFX=  1.000000  1.000000  1.000000  1.000000
 Defaulting to unpruned grid for atomic number  78.
 Defaulting to unpruned grid for atomic number  78.
 Defaulting to unpruned grid for atomic number  78.
 Defaulting to unpruned grid for atomic number  78.
 Defaulting to unpruned grid for atomic number  78.
 Defaulting to unpruned grid for atomic number  78.
 Defaulting to unpruned grid for atomic number  78.
 Defaulting to unpruned grid for atomic number  78.
 Defaulting to unpruned grid for atomic number  78.
 Defaulting to unpruned grid for atomic number  78.
 Defaulting to unpruned grid for atomic number  78.
 Defaulting to unpruned grid for atomic number  78.
 Defaulting to unpruned grid for atomic number  78.
 Defaulting to unpruned grid for atomic number  78.
 Defaulting to unpruned grid for atomic number  78.
 Defaulting to unpruned grid for atomic number  78.
 Defaulting to unpruned grid for atomic number  78.
 Defaulting to unpruned grid for atomic number  78.
 Defaulting to unpruned grid for atomic number  78.
 Defaulting to unpruned grid for atomic number  78.
 Defaulting to unpruned grid for atomic number  78.
 Defaulting to unpruned grid for atomic number  78.
 Defaulting to unpruned grid for atomic number  78.
 Defaulting to unpruned grid for atomic number  78.
 FoFCou: FMM=F IPFlag=           0 FMFlag=      100000 FMFlg1=           0
         NFxFlg=           0 DoJE=T BraDBF=F KetDBF=T FulRan=T
         Omega=  0.000000  0.000000  1.000000  0.000000  0.000000 ICntrl=     500 IOpCl=  0
         NMat0=    1 NMatS0=    1 NMatT0=    0 NMatD0=    1 NMtDS0=    0 NMtDT0=    0
         I1Cent=           4 NGrid=           0.
 Petite list used in FoFCou.
 Initial guess orbital symmetries:
       Occupied  (A) (A) (A) (A) (A) (A) (A) (A) (A) (A) (A) (A)
                 (A) (A) (A) (A) (A) (A) (A) (A) (A) (A) (A) (A)
                 (A) (A) (A) (A) (A) (A) (A) (A) (A) (A) (A) (A)
                 (A) (A) (A) (A) (A) (A) (A) (A) (A) (A) (A) (A)
                 (A) (A) (A) (A) (A) (A) (A) (A) (A) (A) (A) (A)
                 (A) (A) (A) (A)
       Virtual   (A) (A) (A) (A) (A) (A) (A) (A) (A) (A) (A) (A)
                 (A) (A) (A) (A) (A) (A) (A) (A) (A) (A) (A) (A)
                 (A) (A) (A) (A) (A) (A) (A) (A) (A) (A) (A) (A)
                 (A) (A) (A) (A) (A) (A) (A) (A) (A) (A) (A) (A)
                 (A) (A) (A) (A) (A) (A) (A) (A) (A) (A) (A) (A)
                 (A) (A) (A) (A) (A) (A) (A) (A) (A) (A) (A) (A)
                 (A) (A) (A) (A) (A) (A) (A) (A) (A) (A) (A) (A)
                 (A) (A) (A) (A) (A) (A)
 The electronic state of the initial guess is 1-A.
 Requested convergence on RMS density matrix=1.00D-08 within 128 cycles.
 Requested convergence on MAX density matrix=1.00D-06.
 Requested convergence on             energy=1.00D-06.
 No special actions if energy rises.
 Keep R1 ints in memory in canonical form, NReq=96928339.
 Defaulting to unpruned grid for atomic number  78.
 Defaulting to unpruned grid for atomic number  78.
 Defaulting to unpruned grid for atomic number  78.
 Defaulting to unpruned grid for atomic number  78.
 Defaulting to unpruned grid for atomic number  78.
 Defaulting to unpruned grid for atomic number  78.
 Defaulting to unpruned grid for atomic number  78.
 Defaulting to unpruned grid for atomic number  78.
 Defaulting to unpruned grid for atomic number  78.
 Defaulting to unpruned grid for atomic number  78.
 Defaulting to unpruned grid for atomic number  78.
 Defaulting to unpruned grid for atomic number  78.
 Defaulting to unpruned grid for atomic number  78.
 Defaulting to unpruned grid for atomic number  78.
 Defaulting to unpruned grid for atomic number  78.
 Defaulting to unpruned grid for atomic number  78.
 Defaulting to unpruned grid for atomic number  78.
 Defaulting to unpruned grid for atomic number  78.
 Defaulting to unpruned grid for atomic number  78.
 Defaulting to unpruned grid for atomic number  78.
 Defaulting to unpruned grid for atomic number  78.
 Defaulting to unpruned grid for atomic number  78.
 Defaulting to unpruned grid for atomic number  78.
 Defaulting to unpruned grid for atomic number  78.
 EnCoef did   100 forward-backward iterations
 EnCoef did   100 forward-backward iterations
 EnCoef did   100 forward-backward iterations
 EnCoef did     5 forward-backward iterations
 Error on total polarization charges =  0.01314
 SCF Done:  E(RB3LYP) =  -2624.83642823     A.U. after   20 cycles
             Convg  =    0.4235D-08             -V/T =  2.0342

 **********************************************************************

            Population analysis using the SCF density.

 **********************************************************************

 Orbital symmetries:
       Occupied  (A) (A) (A) (A) (A) (A) (A) (A) (A) (A) (A) (A)
                 (A) (A) (A) (A) (A) (A) (A) (A) (A) (A) (A) (A)
                 (A) (A) (A) (A) (A) (A) (A) (A) (A) (A) (A) (A)
                 (A) (A) (A) (A) (A) (A) (A) (A) (A) (A) (A) (A)
                 (A) (A) (A) (A) (A) (A) (A) (A) (A) (A) (A) (A)
                 (A) (A) (A) (A)
       Virtual   (A) (A) (A) (A) (A) (A) (A) (A) (A) (A) (A) (A)
                 (A) (A) (A) (A) (A) (A) (A) (A) (A) (A) (A) (A)
                 (A) (A) (A) (A) (A) (A) (A) (A) (A) (A) (A) (A)
                 (A) (A) (A) (A) (A) (A) (A) (A) (A) (A) (A) (A)
                 (A) (A) (A) (A) (A) (A) (A) (A) (A) (A) (A) (A)
                 (A) (A) (A) (A) (A) (A) (A) (A) (A) (A) (A) (A)
                 (A) (A) (A) (A) (A) (A) (A) (A) (A) (A) (A) (A)
                 (A) (A) (A) (A) (A) (A)
 The electronic state is 1-A.
 Alpha  occ. eigenvalues -- -101.45372-101.45112-101.44707-101.44480-101.42221
 Alpha  occ. eigenvalues --  -19.13875 -19.13650 -14.53266  -9.40508  -9.40265
 Alpha  occ. eigenvalues --   -9.39905  -9.39690  -9.37525  -7.17311  -7.17093
 Alpha  occ. eigenvalues --   -7.16715  -7.16503  -7.16501  -7.16495  -7.16243
 Alpha  occ. eigenvalues --   -7.16238  -7.15889  -7.15879  -7.15682  -7.15652
 Alpha  occ. eigenvalues --   -7.14205  -7.13562  -7.13561  -4.00746  -2.22035
 Alpha  occ. eigenvalues --   -2.21820  -2.21582  -1.32879  -1.11207  -0.76382
 Alpha  occ. eigenvalues --   -0.74729  -0.74458  -0.74252  -0.73021  -0.65115
 Alpha  occ. eigenvalues --   -0.59027  -0.54890  -0.51046  -0.39632  -0.39239
 Alpha  occ. eigenvalues --   -0.37847  -0.37495  -0.36821  -0.35753  -0.31790
 Alpha  occ. eigenvalues --   -0.31553  -0.31324  -0.28680  -0.27528  -0.26907
 Alpha  occ. eigenvalues --   -0.26677  -0.26498  -0.25744  -0.25560  -0.24942
 Alpha  occ. eigenvalues --   -0.24855  -0.24397  -0.23907  -0.23789
 Alpha virt. eigenvalues --   -0.11548  -0.07690   0.01700   0.05541   0.05910
 Alpha virt. eigenvalues --    0.06046   0.11019   0.22850   0.24776   0.26090
 Alpha virt. eigenvalues --    0.37586   0.38481   0.39554   0.40348   0.54631
 Alpha virt. eigenvalues --    0.54655   0.56794   0.59146   0.61140   0.66478
 Alpha virt. eigenvalues --    0.69009   0.69399   0.70375   0.74258   0.78034
 Alpha virt. eigenvalues --    0.79766   0.79787   0.80036   0.80658   0.80919
 Alpha virt. eigenvalues --    0.81385   0.81556   0.81791   0.81944   0.82170
 Alpha virt. eigenvalues --    0.82421   0.82855   0.83058   0.83190   0.83313
 Alpha virt. eigenvalues --    0.83545   0.83846   0.84472   0.84850   0.85262
 Alpha virt. eigenvalues --    0.85361   0.89751   0.90632   0.90955   0.93029
 Alpha virt. eigenvalues --    0.94218   0.97353   0.98734   1.00592   1.01381
 Alpha virt. eigenvalues --    1.04184   1.04327   1.06322   1.08939   1.10363
 Alpha virt. eigenvalues --    1.10703   1.13114   1.15346   1.20119   1.20448
 Alpha virt. eigenvalues --    1.26461   1.28985   1.30385   1.37484   1.41395
 Alpha virt. eigenvalues --    1.43108   1.48995   1.52924   1.55736   1.85138
 Alpha virt. eigenvalues --    1.95908   1.96401   2.49031   2.51757   2.61395
 Alpha virt. eigenvalues --    2.65242   2.79230   2.85066   3.25273   3.27085
 Alpha virt. eigenvalues --    3.52554   3.60079   3.87745   3.99006   6.40674
          Condensed to atoms (all electrons):
              1          2          3          4          5          6
     1  Pt  17.075105   0.070685  -0.022001  -0.029056   0.231302   0.234174
     2  N    0.070685   6.202067   0.346634   0.349106  -0.000360  -0.010866
     3  O   -0.022001   0.346634   8.087614  -0.203044  -0.000264   0.000384
     4  O   -0.029056   0.349106  -0.203044   8.088111  -0.000532   0.000017
     5  Cl   0.231302  -0.000360  -0.000264  -0.000532  17.058326  -0.012273
     6  Cl   0.234174  -0.010866   0.000384   0.000017  -0.012273  17.064601
     7  Cl   0.232625  -0.003121  -0.000797  -0.000612  -0.000520  -0.008131
     8  Cl   0.239268  -0.013632   0.000007  -0.007275  -0.008703  -0.000679
     9  Cl   0.243647  -0.002152   0.000043   0.000061  -0.018728  -0.008742
              7          8          9
     1  Pt   0.232625   0.239268   0.243647
     2  N   -0.003121  -0.013632  -0.002152
     3  O   -0.000797   0.000007   0.000043
     4  O   -0.000612  -0.007275   0.000061
     5  Cl  -0.000520  -0.008703  -0.018728
     6  Cl  -0.008131  -0.000679  -0.008742
     7  Cl  17.061447  -0.006833  -0.007371
     8  Cl  -0.006833  17.066713  -0.008799
     9  Cl  -0.007371  -0.008799  17.149091
 Mulliken atomic charges:
              1
     1  Pt  -0.275750
     2  N    0.061638
     3  O   -0.208575
     4  O   -0.196776
     5  Cl  -0.248247
     6  Cl  -0.258485
     7  Cl  -0.266686
     8  Cl  -0.260067
     9  Cl  -0.347050
 Sum of Mulliken atomic charges =  -2.00000
 Mulliken charges with hydrogens summed into heavy atoms:
              1
     1  Pt  -0.275750
     2  N    0.061638
     3  O   -0.208575
     4  O   -0.196776
     5  Cl  -0.248247
     6  Cl  -0.258485
     7  Cl  -0.266686
     8  Cl  -0.260067
     9  Cl  -0.347050
 Sum of Mulliken charges with hydrogens summed into heavy atoms =  -2.00000
 Electronic spatial extent (au):  <R**2>=           2603.6641
 Charge=             -2.0000 electrons
 Dipole moment (field-independent basis, Debye):
    X=             -2.1569    Y=             -0.1118    Z=             -0.8728  Tot=              2.3295
 Quadrupole moment (field-independent basis, Debye-Ang):
   XX=           -132.4628   YY=           -132.0187   ZZ=           -127.9112
   XY=              0.0160   XZ=             -1.6950   YZ=             -0.5684
 Traceless Quadrupole moment (field-independent basis, Debye-Ang):
   XX=             -1.6653   YY=             -1.2211   ZZ=              2.8864
   XY=              0.0160   XZ=             -1.6950   YZ=             -0.5684
 Octapole moment (field-independent basis, Debye-Ang**2):
  XXX=            -11.7659  YYY=             -0.8831  ZZZ=             -7.5855  XYY=              2.6032
  XXY=             -1.5882  XXZ=              2.9351  XZZ=             -4.0295  YZZ=              1.2261
  YYZ=              1.6250  XYZ=              0.0625
 Hexadecapole moment (field-independent basis, Debye-Ang**3):
 XXXX=          -1287.0636 YYYY=          -1188.2991 ZZZZ=          -1088.0913 XXXY=             -1.0734
 XXXZ=            -32.9725 YYYX=              6.2945 YYYZ=            -11.3727 ZZZX=             24.0357
 ZZZY=              7.7930 XXYY=           -408.6108 XXZZ=           -404.0553 YYZZ=           -375.4938
 XXYZ=             -0.7834 YYXZ=             -0.0621 ZZXY=             -6.9493
 N-N= 1.198516936280D+03 E-N=-8.638466242030D+03  KE= 2.538014696079D+03
   1 Symmetry operations used in ECPInt.
 ECPInt:  NShTT=    2211 NPrTT=   10318 LenC2=    2081 LenP2D=    6955.
 LDataN:  DoStor=T MaxTD1= 7 Len=  274
 D1PCM: PCM CHGder 1st derivatives, ID1Alg=3 FixD1E=F DoIter=F DoCFld=F I1PDM=0.
 Calling FoFJK, ICntrl=      2127 FMM=F ISym2X=0 I1Cent= 0 IOpClX= 0 NMat=1 NMatS=1 NMatT=0.
 Defaulting to unpruned grid for atomic number  78.
 Defaulting to unpruned grid for atomic number  78.
 Defaulting to unpruned grid for atomic number  78.
 Defaulting to unpruned grid for atomic number  78.
 Defaulting to unpruned grid for atomic number  78.
 Defaulting to unpruned grid for atomic number  78.
 Defaulting to unpruned grid for atomic number  78.
 Defaulting to unpruned grid for atomic number  78.
 Defaulting to unpruned grid for atomic number  78.
 Defaulting to unpruned grid for atomic number  78.
 Defaulting to unpruned grid for atomic number  78.
 Defaulting to unpruned grid for atomic number  78.
 Defaulting to unpruned grid for atomic number  78.
 Defaulting to unpruned grid for atomic number  78.
 Defaulting to unpruned grid for atomic number  78.
 Defaulting to unpruned grid for atomic number  78.
 Defaulting to unpruned grid for atomic number  78.
 Defaulting to unpruned grid for atomic number  78.
 Defaulting to unpruned grid for atomic number  78.
 Defaulting to unpruned grid for atomic number  78.
 Defaulting to unpruned grid for atomic number  78.
 Defaulting to unpruned grid for atomic number  78.
 Defaulting to unpruned grid for atomic number  78.
 Defaulting to unpruned grid for atomic number  78.
 ***** Axes restored to original set *****
 -------------------------------------------------------------------
 Center     Atomic                   Forces (Hartrees/Bohr)
 Number     Number              X              Y              Z
 -------------------------------------------------------------------
      1       78           0.013680982   -0.000740285   -0.008080233
      2        7           0.204958842    0.001240570   -0.098068698
      3        8          -0.104010242    0.325802579    0.092427711
      4        8          -0.127739533   -0.324466973    0.027878334
      5       17          -0.011951297   -0.000211141    0.000233267
      6       17          -0.001493936    0.002073234   -0.001877712
      7       17           0.001201411   -0.003616267    0.007938704
      8       17           0.003972220   -0.000912731   -0.005770426
      9       17           0.021381553    0.000831014   -0.014680947
 -------------------------------------------------------------------
 Cartesian Forces:  Max     0.325802579 RMS     0.105534919

 GradGradGradGradGradGradGradGradGradGradGradGradGradGradGradGradGradGrad
 Berny optimization.
 Internal  Forces:  Max     0.349804525 RMS     0.090470364
 Search for a local minimum.
 Step number   1 out of a maximum of   41
 All quantities printed in internal units (Hartrees-Bohrs-Radians)
 Mixed Optimization -- RFO/linear search
 Second derivative matrix not updated -- first step.
     Eigenvalues ---    0.00230   0.00312   0.12514   0.12545   0.13711
     Eigenvalues ---    0.13984   0.15189   0.15351   0.16605   0.16880
     Eigenvalues ---    0.18134   0.25000   0.25000   0.25000   0.25000
     Eigenvalues ---    0.25000   0.25000   0.25000   0.25000   1.90423
     Eigenvalues ---    1.909671000.000001000.000001000.000001000.00000
     Eigenvalues --- 1000.000001000.000001000.000001000.000001000.00000
     Eigenvalues --- 1000.00000
 RFO step:  Lambda=-1.48121795D-01 EMin= 2.30000000D-03
 Linear search not attempted -- first point.
 Maximum step size (   0.300) exceeded in Quadratic search.
    -- Step size scaled by   0.794
 Iteration  1 RMS(Cart)=  0.07588284 RMS(Int)=  0.00321180
 Iteration  2 RMS(Cart)=  0.00334525 RMS(Int)=  0.00032372
 Iteration  3 RMS(Cart)=  0.00001346 RMS(Int)=  0.00032348
 Iteration  4 RMS(Cart)=  0.00000000 RMS(Int)=  0.00032348
 Variable       Old X    -DE/DX   Delta X   Delta X   Delta X     New X
                                 (Linear)    (Quad)   (Total)
    R1        3.84151   0.03344   0.00000   0.08056   0.08056   3.92207
    R2        4.63306  -0.00549   0.00000  -0.01514  -0.01514   4.61792
    R3        4.56222   0.00121   0.00000   0.00318   0.00318   4.56540
    R4        4.64834  -0.00840   0.00000  -0.02338  -0.02338   4.62496
    R5        4.57020   0.00148   0.00000   0.00392   0.00392   4.57411
    R6        4.49234   0.02535   0.00000   0.06347   0.06347   4.55581
    R7        2.05334   0.34980   0.00000   0.13491   0.13491   2.18826
    R8        2.05427   0.34678   0.00000   0.13410   0.13410   2.18837
    A1        1.68373  -0.02137   0.00000  -0.04262  -0.04252   1.64121
    A2        1.62182  -0.01106   0.00000  -0.02179  -0.02188   1.59994
    A3        1.52862  -0.00873   0.00000  -0.01735  -0.01726   1.51137
    A4        1.52999   0.02390   0.00000   0.04797   0.04793   1.57792
    A5        1.51276   0.00607   0.00000   0.01603   0.01591   1.52867
    A6        1.56466   0.00017   0.00000   0.00333   0.00452   1.56918
    A7        1.44580   0.02707   0.00000   0.05390   0.05400   1.49980
    A8        1.58661  -0.00168   0.00000  -0.00528  -0.00534   1.58127
    A9        1.56683  -0.00866   0.00000  -0.01750  -0.01759   1.54925
   A10        1.61879  -0.00536   0.00000  -0.01574  -0.01508   1.60372
   A11        1.62697   0.00204   0.00000   0.00399   0.00408   1.63105
   A12        1.56371  -0.00368   0.00000  -0.00759  -0.00767   1.55604
   A13        2.11865  -0.04313   0.00000  -0.08439  -0.08453   2.03412
   A14        2.05627  -0.02302   0.00000  -0.04431  -0.04445   2.01183
   A15        2.09696   0.06673   0.00000   0.13462   0.13448   2.23143
    D1        1.64001   0.00639   0.00000   0.03235   0.03301   1.67302
    D2       -1.34073  -0.00398   0.00000  -0.02208  -0.02143  -1.36216
    D3        0.12190   0.00247   0.00000   0.02055   0.02052   0.14242
    D4       -2.85884  -0.00791   0.00000  -0.03389  -0.03392  -2.89276
    D5       -1.46259   0.00413   0.00000   0.02581   0.02545  -1.43714
    D6        1.83986  -0.00624   0.00000  -0.02862  -0.02899   1.81087
    D7       -3.08319   0.01018   0.00000   0.04296   0.04270  -3.04049
    D8        0.21926  -0.00019   0.00000  -0.01147  -0.01174   0.20752
         Item               Value     Threshold  Converged?
 Maximum Force            0.349805     0.000450     NO 
 RMS     Force            0.090470     0.000300     NO 
 Maximum Displacement     0.247479     0.001800     NO 
 RMS     Displacement     0.075872     0.001200     NO 
 Predicted change in Energy=-7.757091D-02
 GradGradGradGradGradGradGradGradGradGradGradGradGradGradGradGradGradGrad

                          Input orientation:                          
 ---------------------------------------------------------------------
 Center     Atomic      Atomic             Coordinates (Angstroms)
 Number     Number       Type             X           Y           Z
 ---------------------------------------------------------------------
      1         78           0        0.062220   -0.014274   -0.043980
      2          7           0       -1.834994    0.049326    0.795131
      3          8           0       -2.212570    1.087334    1.142811
      4          8           0       -2.338949   -0.980744    0.956460
      5         17           0        1.153907   -0.651626    2.047353
      6         17           0        0.482283    2.287630    0.557165
      7         17           0       -0.996676    0.697491   -2.132522
      8         17           0       -0.240470   -2.351993   -0.593843
      9         17           0        2.264043   -0.106268   -1.021542
 ---------------------------------------------------------------------
                    Distance matrix (angstroms):
                    1          2          3          4          5
     1  Pt   0.000000
     2  N    2.075470   0.000000
     3  O    2.792254   1.157975   0.000000
     4  O    2.774988   1.158033   2.080299   0.000000
     5  Cl   2.443700   3.315557   3.895554   3.674018   0.000000
     6  Cl   2.415904   3.230543   3.007645   4.336019   3.363178
     7  Cl   2.447423   3.113527   3.515421   3.762975   4.890448
     8  Cl   2.420516   3.199702   4.328293   2.947437   3.436779
     9  Cl   2.410832   4.486270   5.113626   5.085739   3.308766
                    6          7          8          9
     6  Cl   0.000000
     7  Cl   3.456918   0.000000
     8  Cl   4.834594   3.498390   0.000000
     9  Cl   3.376053   3.537315   3.390986   0.000000
 Stoichiometry    Cl5NO2Pt(2-)
 Framework group  C1[X(Cl5NO2Pt)]
 Deg. of freedom    21
 Full point group                 C1      NOp   1
 Largest Abelian subgroup         C1      NOp   1
 Largest concise Abelian subgroup C1      NOp   1
                         Standard orientation:                         
 ---------------------------------------------------------------------
 Center     Atomic      Atomic             Coordinates (Angstroms)
 Number     Number       Type             X           Y           Z
 ---------------------------------------------------------------------
      1         78           0        0.062152    0.001349    0.034057
      2          7           0       -1.919957    0.053165   -0.579240
      3          8           0       -2.430068   -0.969056   -0.768336
      4          8           0       -2.343160    1.109254   -0.795146
      5         17           0        0.948311    0.315506   -2.221535
      6         17           0        0.194279   -2.379223   -0.355835
      7         17           0       -0.798745   -0.390134    2.291373
      8         17           0        0.043168    2.400221    0.356474
      9         17           0        2.364614   -0.040425    0.747527
 ---------------------------------------------------------------------
 Rotational constants (GHZ):      0.5931622      0.5651060      0.5444050
 Basis read from rwf:  (5D, 7F)
 Pseudo-potential data read from rwf file.
 There are   154 symmetry adapted basis functions of A   symmetry.
 Integral buffers will be    131072 words long.
 Raffenetti 2 integral format.
 Two-electron integral symmetry is turned on.
   154 basis functions,   303 primitive gaussians,   164 cartesian basis functions
    64 alpha electrons       64 beta electrons
       nuclear repulsion energy      1188.4219582315 Hartrees.
 NAtoms=    9 NActive=    9 NUniq=    9 SFac= 7.50D-01 NAtFMM=   80 NAOKFM=F Big=F
 ------------------------------------------------------------------------------
 Polarizable Continuum Model (PCM)
 =================================
 Model                : PCM.
 Atomic radii         : UFF (Universal Force Field).
 Polarization charges : Total charges.
 Charge compensation  : None.
 Solution method      : Matrix inversion.
 Cavity type          : Scaled VdW (van der Waals Surface) (Alpha=1.100).
 Cavity algorithm     : GePol (No added spheres)
                        Default sphere list used, NSphG=    9.
                        Lebedev-Laikov grids with approx.  5.0 points / Ang**2.
                        Smoothing algorithm: Karplus/York (Gamma=1.0000).
                        Polarization charges: spherical gaussians, with
                                              point-specific exponents (IZeta= 3).
                        Self-potential: point-specific (ISelfS= 7).
                        Self-field    : sphere-specific E.n sum rule (ISelfD= 2).
 1st derivatives      : Analytical E(r).r(x)/FMM algorithm (CHGder, D1EAlg=3).
                        Cavity 1st derivative terms included.
 Solvent              : Water, Eps=  78.355300 Eps(inf)=   1.777849
 ------------------------------------------------------------------------------
 Spheres list:
 ISph  on   Nord    Re0     Alpha      Xe            Ye            Ze
    1  Pt      1    1.377   1.100      0.062152      0.001349      0.034057
    2   N      2    1.830   1.100     -1.919957      0.053165     -0.579240
    3   O      3    1.750   1.100     -2.430068     -0.969056     -0.768336
    4   O      4    1.750   1.100     -2.343160      1.109254     -0.795146
    5  Cl      5    1.974   1.100      0.948311      0.315506     -2.221535
    6  Cl      6    1.974   1.100      0.194279     -2.379223     -0.355835
    7  Cl      7    1.974   1.100     -0.798745     -0.390134      2.291373
    8  Cl      8    1.974   1.100      0.043168      2.400221      0.356474
    9  Cl      9    1.974   1.100      2.364614     -0.040425      0.747527
 ------------------------------------------------------------------------------
 One-electron integrals computed using PRISM.
   1 Symmetry operations used in ECPInt.
 ECPInt:  NShTT=    2211 NPrTT=   10318 LenC2=    2080 LenP2D=    6931.
 LDataN:  DoStor=T MaxTD1= 6 Len=  172
 NBasis=   154 RedAO= T  NBF=   154
 NBsUse=   154 1.00D-06 NBFU=   154
 Defaulting to unpruned grid for atomic number  78.
 Initial guess read from the read-write file.
 B after Tr=     0.000000    0.000000    0.000000
         Rot=    1.000000    0.000000    0.000000    0.000000 Ang=   0.00 deg.
 Initial guess orbital symmetries:
       Occupied  (A) (A) (A) (A) (A) (A) (A) (A) (A) (A) (A) (A)
                 (A) (A) (A) (A) (A) (A) (A) (A) (A) (A) (A) (A)
                 (A) (A) (A) (A) (A) (A) (A) (A) (A) (A) (A) (A)
                 (A) (A) (A) (A) (A) (A) (A) (A) (A) (A) (A) (A)
                 (A) (A) (A) (A) (A) (A) (A) (A) (A) (A) (A) (A)
                 (A) (A) (A) (A)
       Virtual   (A) (A) (A) (A) (A) (A) (A) (A) (A) (A) (A) (A)
                 (A) (A) (A) (A) (A) (A) (A) (A) (A) (A) (A) (A)
                 (A) (A) (A) (A) (A) (A) (A) (A) (A) (A) (A) (A)
                 (A) (A) (A) (A) (A) (A) (A) (A) (A) (A) (A) (A)
                 (A) (A) (A) (A) (A) (A) (A) (A) (A) (A) (A) (A)
                 (A) (A) (A) (A) (A) (A) (A) (A) (A) (A) (A) (A)
                 (A) (A) (A) (A) (A) (A) (A) (A) (A) (A) (A) (A)
                 (A) (A) (A) (A) (A) (A)
 Harris functional with IExCor=  402 diagonalized for initial guess.
 ExpMin= 2.90D-02 ExpMax= 1.04D+04 ExpMxC= 1.57D+03 IAcc=3 IRadAn=         0 AccDes= 0.00D+00
 HarFok:  IExCor=  402 AccDes= 0.00D+00 IRadAn=         0 IDoV= 1
 ScaDFX=  1.000000  1.000000  1.000000  1.000000
 Defaulting to unpruned grid for atomic number  78.
 Defaulting to unpruned grid for atomic number  78.
 Defaulting to unpruned grid for atomic number  78.
 Defaulting to unpruned grid for atomic number  78.
 Defaulting to unpruned grid for atomic number  78.
 Defaulting to unpruned grid for atomic number  78.
 Defaulting to unpruned grid for atomic number  78.
 Defaulting to unpruned grid for atomic number  78.
 Defaulting to unpruned grid for atomic number  78.
 Defaulting to unpruned grid for atomic number  78.
 Defaulting to unpruned grid for atomic number  78.
 Defaulting to unpruned grid for atomic number  78.
 Defaulting to unpruned grid for atomic number  78.
 Defaulting to unpruned grid for atomic number  78.
 Defaulting to unpruned grid for atomic number  78.
 Defaulting to unpruned grid for atomic number  78.
 Defaulting to unpruned grid for atomic number  78.
 Defaulting to unpruned grid for atomic number  78.
 Defaulting to unpruned grid for atomic number  78.
 Defaulting to unpruned grid for atomic number  78.
 Defaulting to unpruned grid for atomic number  78.
 Defaulting to unpruned grid for atomic number  78.
 Defaulting to unpruned grid for atomic number  78.
 Defaulting to unpruned grid for atomic number  78.
 FoFCou: FMM=F IPFlag=           0 FMFlag=      100000 FMFlg1=           0
         NFxFlg=           0 DoJE=T BraDBF=F KetDBF=T FulRan=T
         Omega=  0.000000  0.000000  1.000000  0.000000  0.000000 ICntrl=     500 IOpCl=  0
         NMat0=    1 NMatS0=    1 NMatT0=    0 NMatD0=    1 NMtDS0=    0 NMtDT0=    0
         I1Cent=           4 NGrid=           0.
 Petite list used in FoFCou.
 Requested convergence on RMS density matrix=1.00D-08 within 128 cycles.
 Requested convergence on MAX density matrix=1.00D-06.
 Requested convergence on             energy=1.00D-06.
 No special actions if energy rises.
 Keep R1 ints in memory in canonical form, NReq=96993957.
 Defaulting to unpruned grid for atomic number  78.
 Defaulting to unpruned grid for atomic number  78.
 Defaulting to unpruned grid for atomic number  78.
 Defaulting to unpruned grid for atomic number  78.
 Defaulting to unpruned grid for atomic number  78.
 Defaulting to unpruned grid for atomic number  78.
 Defaulting to unpruned grid for atomic number  78.
 Defaulting to unpruned grid for atomic number  78.
 Defaulting to unpruned grid for atomic number  78.
 Defaulting to unpruned grid for atomic number  78.
 Defaulting to unpruned grid for atomic number  78.
 Defaulting to unpruned grid for atomic number  78.
 Defaulting to unpruned grid for atomic number  78.
 Defaulting to unpruned grid for atomic number  78.
 Defaulting to unpruned grid for atomic number  78.
 Defaulting to unpruned grid for atomic number  78.
 Defaulting to unpruned grid for atomic number  78.
 Defaulting to unpruned grid for atomic number  78.
 Defaulting to unpruned grid for atomic number  78.
 Defaulting to unpruned grid for atomic number  78.
 Defaulting to unpruned grid for atomic number  78.
 Defaulting to unpruned grid for atomic number  78.
 Defaulting to unpruned grid for atomic number  78.
 Defaulting to unpruned grid for atomic number  78.
 Error on total polarization charges =  0.01305
 SCF Done:  E(RB3LYP) =  -2624.90660063     A.U. after   15 cycles
             Convg  =    0.5581D-08             -V/T =  2.0346
   1 Symmetry operations used in ECPInt.
 ECPInt:  NShTT=    2211 NPrTT=   10318 LenC2=    2080 LenP2D=    6931.
 LDataN:  DoStor=T MaxTD1= 7 Len=  274
 D1PCM: PCM CHGder 1st derivatives, ID1Alg=3 FixD1E=F DoIter=F DoCFld=F I1PDM=0.
 Calling FoFJK, ICntrl=      2127 FMM=F ISym2X=0 I1Cent= 0 IOpClX= 0 NMat=1 NMatS=1 NMatT=0.
 Defaulting to unpruned grid for atomic number  78.
 Defaulting to unpruned grid for atomic number  78.
 Defaulting to unpruned grid for atomic number  78.
 Defaulting to unpruned grid for atomic number  78.
 Defaulting to unpruned grid for atomic number  78.
 Defaulting to unpruned grid for atomic number  78.
 Defaulting to unpruned grid for atomic number  78.
 Defaulting to unpruned grid for atomic number  78.
 Defaulting to unpruned grid for atomic number  78.
 Defaulting to unpruned grid for atomic number  78.
 Defaulting to unpruned grid for atomic number  78.
 Defaulting to unpruned grid for atomic number  78.
 Defaulting to unpruned grid for atomic number  78.
 Defaulting to unpruned grid for atomic number  78.
 Defaulting to unpruned grid for atomic number  78.
 Defaulting to unpruned grid for atomic number  78.
 Defaulting to unpruned grid for atomic number  78.
 Defaulting to unpruned grid for atomic number  78.
 Defaulting to unpruned grid for atomic number  78.
 Defaulting to unpruned grid for atomic number  78.
 Defaulting to unpruned grid for atomic number  78.
 Defaulting to unpruned grid for atomic number  78.
 Defaulting to unpruned grid for atomic number  78.
 Defaulting to unpruned grid for atomic number  78.
 ***** Axes restored to original set *****
 -------------------------------------------------------------------
 Center     Atomic                   Forces (Hartrees/Bohr)
 Number     Number              X              Y              Z
 -------------------------------------------------------------------
      1       78           0.005954803    0.001314382   -0.003342019
      2        7           0.088058140   -0.003514672   -0.030846516
      3        8          -0.044887447    0.090088334    0.028393938
      4        8          -0.057473270   -0.086843847    0.015874889
      5       17          -0.008314719    0.000226252   -0.001661567
      6       17           0.000550037    0.001705863   -0.001355729
      7       17           0.001544545   -0.002729769    0.004981954
      8       17           0.001470458   -0.000389085   -0.003369916
      9       17           0.013097452    0.000142543   -0.008675035
 -------------------------------------------------------------------
 Cartesian Forces:  Max     0.090088334 RMS     0.033978559

 GradGradGradGradGradGradGradGradGradGradGradGradGradGradGradGradGradGrad
 Berny optimization.
 Using GEDIIS/GDIIS optimizer.
 Internal  Forces:  Max     0.104478943 RMS     0.027530450
 Search for a local minimum.
 Step number   2 out of a maximum of   41
 All quantities printed in internal units (Hartrees-Bohrs-Radians)
 Mixed Optimization -- RFO/linear search
 Update second derivatives using D2CorX and points    1    2
 DE= -7.02D-02 DEPred=-7.76D-02 R= 9.05D-01
 SS=  1.41D+00  RLast= 3.00D-01 DXNew= 5.0454D-01 8.9995D-01
 Trust test= 9.05D-01 RLast= 3.00D-01 DXMaxT set to 5.05D-01
 Use linear search instead of GDIIS.
     Eigenvalues ---    0.00230   0.00282   0.12551   0.12582   0.13702
     Eigenvalues ---    0.13973   0.15188   0.15350   0.16670   0.16795
     Eigenvalues ---    0.18031   0.24493   0.25000   0.25000   0.25000
     Eigenvalues ---    0.25000   0.25000   0.25000   0.31875   1.66741
     Eigenvalues ---    1.907131000.000001000.000001000.000001000.00000
     Eigenvalues --- 1000.000001000.000001000.000001000.000001000.00000
     Eigenvalues --- 1000.00000
 RFO step:  Lambda=-3.06323684D-02 EMin= 2.30001343D-03
 Quartic linear search produced a step of  0.55593.
 Maximum step size (   0.505) exceeded in Quadratic search.
    -- Step size scaled by   0.743
 Iteration  1 RMS(Cart)=  0.10415532 RMS(Int)=  0.01219373
 Iteration  2 RMS(Cart)=  0.01069122 RMS(Int)=  0.00659159
 Iteration  3 RMS(Cart)=  0.00012340 RMS(Int)=  0.00659020
 Iteration  4 RMS(Cart)=  0.00000110 RMS(Int)=  0.00659020
 Iteration  5 RMS(Cart)=  0.00000001 RMS(Int)=  0.00659020
 Variable       Old X    -DE/DX   Delta X   Delta X   Delta X     New X
                                 (Linear)    (Quad)   (Total)
    R1        3.92207   0.01849   0.04479   0.09578   0.14057   4.06264
    R2        4.61792  -0.00521  -0.00842  -0.03570  -0.04411   4.57381
    R3        4.56540   0.00138   0.00177   0.00862   0.01039   4.57579
    R4        4.62496  -0.00570  -0.01300  -0.04025  -0.05325   4.57171
    R5        4.57411   0.00096   0.00218   0.00606   0.00824   4.58236
    R6        4.55581   0.01547   0.03529   0.08723   0.12252   4.67833
    R7        2.18826   0.10391   0.07500   0.00468   0.07968   2.26794
    R8        2.18837   0.10448   0.07455   0.00554   0.08009   2.26846
    A1        1.64121  -0.01501  -0.02364  -0.05445  -0.07770   1.56351
    A2        1.59994   0.00021  -0.01216   0.00471  -0.00754   1.59240
    A3        1.51137  -0.00222  -0.00959  -0.00666  -0.01596   1.49540
    A4        1.57792   0.00846   0.02665   0.02806   0.05451   1.63243
    A5        1.52867   0.00352   0.00884   0.02591   0.03522   1.56389
    A6        1.56918   0.00094   0.00251   0.00937   0.01510   1.58428
    A7        1.49980   0.01500   0.03002   0.05285   0.08305   1.58285
    A8        1.58127  -0.00039  -0.00297  -0.00480  -0.00744   1.57383
    A9        1.54925  -0.00444  -0.00978  -0.01611  -0.02595   1.52330
   A10        1.60372  -0.00359  -0.00838  -0.02883  -0.03565   1.56807
   A11        1.63105   0.00209   0.00227   0.00775   0.01020   1.64125
   A12        1.55604  -0.00422  -0.00426  -0.01669  -0.02102   1.53502
   A13        2.03412   0.00528  -0.04699   0.04510  -0.02256   2.01156
   A14        2.01183   0.01195  -0.02471   0.06627   0.02092   2.03274
   A15        2.23143  -0.01646   0.07476  -0.07563  -0.02232   2.20912
    D1        1.67302   0.00465   0.01835   0.19624   0.21466   1.88768
    D2       -1.36216  -0.00128  -0.01192  -0.12475  -0.13399  -1.49616
    D3        0.14242   0.00150   0.01141   0.17136   0.18154   0.32396
    D4       -2.89276  -0.00443  -0.01886  -0.14963  -0.16712  -3.05988
    D5       -1.43714   0.00197   0.01415   0.17664   0.18888  -1.24825
    D6        1.81087  -0.00396  -0.01612  -0.14434  -0.15977   1.65109
    D7       -3.04049   0.00608   0.02374   0.20723   0.22884  -2.81164
    D8        0.20752   0.00015  -0.00653  -0.11376  -0.11982   0.08770
         Item               Value     Threshold  Converged?
 Maximum Force            0.104479     0.000450     NO 
 RMS     Force            0.027530     0.000300     NO 
 Maximum Displacement     0.215640     0.001800     NO 
 RMS     Displacement     0.103201     0.001200     NO 
 Predicted change in Energy=-1.294586D-02
 GradGradGradGradGradGradGradGradGradGradGradGradGradGradGradGradGradGrad

                          Input orientation:                          
 ---------------------------------------------------------------------
 Center     Atomic      Atomic             Coordinates (Angstroms)
 Number     Number       Type             X           Y           Z
 ---------------------------------------------------------------------
      1         78           0        0.106670   -0.032698   -0.027645
      2          7           0       -1.826427    0.052454    0.909243
      3          8           0       -2.267124    1.156452    1.074510
      4          8           0       -2.439131   -0.978238    0.966406
      5         17           0        1.082623   -0.692935    2.086530
      6         17           0        0.532260    2.287349    0.519574
      7         17           0       -1.043637    0.646398   -2.044665
      8         17           0       -0.143407   -2.356090   -0.675213
      9         17           0        2.336966   -0.065814   -1.101708
 ---------------------------------------------------------------------
                    Distance matrix (angstroms):
                    1          2          3          4          5
     1  Pt   0.000000
     2  N    2.149854   0.000000
     3  O    2.874669   1.200141   0.000000
     4  O    2.891935   1.200417   2.144335   0.000000
     5  Cl   2.420358   3.225551   3.957932   3.706593   0.000000
     6  Cl   2.421403   3.272613   3.069761   4.437666   3.411794
     7  Cl   2.419246   3.113054   3.389149   3.695050   4.835449
     8  Cl   2.424878   3.338284   4.462024   3.140659   3.449125
     9  Cl   2.475667   4.625122   5.237127   5.284006   3.483033
                    6          7          8          9
     6  Cl   0.000000
     7  Cl   3.428045   0.000000
     8  Cl   4.842062   3.420636   0.000000
     9  Cl   3.379777   3.581186   3.402869   0.000000
 Stoichiometry    Cl5NO2Pt(2-)
 Framework group  C1[X(Cl5NO2Pt)]
 Deg. of freedom    21
 Full point group                 C1      NOp   1
 Largest Abelian subgroup         C1      NOp   1
 Largest concise Abelian subgroup C1      NOp   1
                         Standard orientation:                         
 ---------------------------------------------------------------------
 Center     Atomic      Atomic             Coordinates (Angstroms)
 Number     Number       Type             X           Y           Z
 ---------------------------------------------------------------------
      1         78           0       -0.085396    0.003456   -0.005634
      2          7           0        2.016104    0.082911    0.440749
      3          8           0        2.605410   -0.955248    0.317124
      4          8           0        2.503840    1.176408    0.526651
      5         17           0       -0.576897    0.223300    2.354075
      6         17           0       -0.098557   -2.406097    0.233272
      7         17           0        0.600032   -0.221863   -2.314783
      8         17           0       -0.266319    2.403534   -0.300465
      9         17           0       -2.500956   -0.152945   -0.524806
 ---------------------------------------------------------------------
 Rotational constants (GHZ):      0.5944431      0.5508276      0.5272815
 Basis read from rwf:  (5D, 7F)
 Pseudo-potential data read from rwf file.
 There are   154 symmetry adapted basis functions of A   symmetry.
 Integral buffers will be    131072 words long.
 Raffenetti 2 integral format.
 Two-electron integral symmetry is turned on.
   154 basis functions,   303 primitive gaussians,   164 cartesian basis functions
    64 alpha electrons       64 beta electrons
       nuclear repulsion energy      1176.2905017588 Hartrees.
 NAtoms=    9 NActive=    9 NUniq=    9 SFac= 7.50D-01 NAtFMM=   80 NAOKFM=F Big=F
 ------------------------------------------------------------------------------
 Polarizable Continuum Model (PCM)
 =================================
 Model                : PCM.
 Atomic radii         : UFF (Universal Force Field).
 Polarization charges : Total charges.
 Charge compensation  : None.
 Solution method      : Matrix inversion.
 Cavity type          : Scaled VdW (van der Waals Surface) (Alpha=1.100).
 Cavity algorithm     : GePol (No added spheres)
                        Default sphere list used, NSphG=    9.
                        Lebedev-Laikov grids with approx.  5.0 points / Ang**2.
                        Smoothing algorithm: Karplus/York (Gamma=1.0000).
                        Polarization charges: spherical gaussians, with
                                              point-specific exponents (IZeta= 3).
                        Self-potential: point-specific (ISelfS= 7).
                        Self-field    : sphere-specific E.n sum rule (ISelfD= 2).
 1st derivatives      : Analytical E(r).r(x)/FMM algorithm (CHGder, D1EAlg=3).
                        Cavity 1st derivative terms included.
 Solvent              : Water, Eps=  78.355300 Eps(inf)=   1.777849
 ------------------------------------------------------------------------------
 Spheres list:
 ISph  on   Nord    Re0     Alpha      Xe            Ye            Ze
    1  Pt      1    1.377   1.100     -0.085396      0.003456     -0.005634
    2   N      2    1.830   1.100      2.016104      0.082911      0.440749
    3   O      3    1.750   1.100      2.605410     -0.955248      0.317124
    4   O      4    1.750   1.100      2.503840      1.176408      0.526651
    5  Cl      5    1.974   1.100     -0.576897      0.223300      2.354075
    6  Cl      6    1.974   1.100     -0.098557     -2.406097      0.233272
    7  Cl      7    1.974   1.100      0.600032     -0.221863     -2.314783
    8  Cl      8    1.974   1.100     -0.266319      2.403534     -0.300465
    9  Cl      9    1.974   1.100     -2.500956     -0.152945     -0.524806
 ------------------------------------------------------------------------------
 One-electron integrals computed using PRISM.
   1 Symmetry operations used in ECPInt.
 ECPInt:  NShTT=    2211 NPrTT=   10318 LenC2=    2067 LenP2D=    6900.
 LDataN:  DoStor=T MaxTD1= 6 Len=  172
 NBasis=   154 RedAO= T  NBF=   154
 NBsUse=   154 1.00D-06 NBFU=   154
 Defaulting to unpruned grid for atomic number  78.
 Initial guess read from the read-write file.
 B after Tr=     0.000000    0.000000    0.000000
         Rot=    1.000000    0.000000    0.000000    0.000000 Ang=   0.00 deg.
 Initial guess orbital symmetries:
       Occupied  (A) (A) (A) (A) (A) (A) (A) (A) (A) (A) (A) (A)
                 (A) (A) (A) (A) (A) (A) (A) (A) (A) (A) (A) (A)
                 (A) (A) (A) (A) (A) (A) (A) (A) (A) (A) (A) (A)
                 (A) (A) (A) (A) (A) (A) (A) (A) (A) (A) (A) (A)
                 (A) (A) (A) (A) (A) (A) (A) (A) (A) (A) (A) (A)
                 (A) (A) (A) (A)
       Virtual   (A) (A) (A) (A) (A) (A) (A) (A) (A) (A) (A) (A)
                 (A) (A) (A) (A) (A) (A) (A) (A) (A) (A) (A) (A)
                 (A) (A) (A) (A) (A) (A) (A) (A) (A) (A) (A) (A)
                 (A) (A) (A) (A) (A) (A) (A) (A) (A) (A) (A) (A)
                 (A) (A) (A) (A) (A) (A) (A) (A) (A) (A) (A) (A)
                 (A) (A) (A) (A) (A) (A) (A) (A) (A) (A) (A) (A)
                 (A) (A) (A) (A) (A) (A) (A) (A) (A) (A) (A) (A)
                 (A) (A) (A) (A) (A) (A)
 Harris functional with IExCor=  402 diagonalized for initial guess.
 ExpMin= 2.90D-02 ExpMax= 1.04D+04 ExpMxC= 1.57D+03 IAcc=3 IRadAn=         0 AccDes= 0.00D+00
 HarFok:  IExCor=  402 AccDes= 0.00D+00 IRadAn=         0 IDoV= 1
 ScaDFX=  1.000000  1.000000  1.000000  1.000000
 Defaulting to unpruned grid for atomic number  78.
 Defaulting to unpruned grid for atomic number  78.
 Defaulting to unpruned grid for atomic number  78.
 Defaulting to unpruned grid for atomic number  78.
 Defaulting to unpruned grid for atomic number  78.
 Defaulting to unpruned grid for atomic number  78.
 Defaulting to unpruned grid for atomic number  78.
 Defaulting to unpruned grid for atomic number  78.
 Defaulting to unpruned grid for atomic number  78.
 Defaulting to unpruned grid for atomic number  78.
 Defaulting to unpruned grid for atomic number  78.
 Defaulting to unpruned grid for atomic number  78.
 Defaulting to unpruned grid for atomic number  78.
 Defaulting to unpruned grid for atomic number  78.
 Defaulting to unpruned grid for atomic number  78.
 Defaulting to unpruned grid for atomic number  78.
 Defaulting to unpruned grid for atomic number  78.
 Defaulting to unpruned grid for atomic number  78.
 Defaulting to unpruned grid for atomic number  78.
 Defaulting to unpruned grid for atomic number  78.
 Defaulting to unpruned grid for atomic number  78.
 Defaulting to unpruned grid for atomic number  78.
 Defaulting to unpruned grid for atomic number  78.
 Defaulting to unpruned grid for atomic number  78.
 FoFCou: FMM=F IPFlag=           0 FMFlag=      100000 FMFlg1=           0
         NFxFlg=           0 DoJE=T BraDBF=F KetDBF=T FulRan=T
         Omega=  0.000000  0.000000  1.000000  0.000000  0.000000 ICntrl=     500 IOpCl=  0
         NMat0=    1 NMatS0=    1 NMatT0=    0 NMatD0=    1 NMtDS0=    0 NMtDT0=    0
         I1Cent=           4 NGrid=           0.
 Petite list used in FoFCou.
 Requested convergence on RMS density matrix=1.00D-08 within 128 cycles.
 Requested convergence on MAX density matrix=1.00D-06.
 Requested convergence on             energy=1.00D-06.
 No special actions if energy rises.
 Keep R1 ints in memory in canonical form, NReq=97010011.
 Defaulting to unpruned grid for atomic number  78.
 Defaulting to unpruned grid for atomic number  78.
 Defaulting to unpruned grid for atomic number  78.
 Defaulting to unpruned grid for atomic number  78.
 Defaulting to unpruned grid for atomic number  78.
 Defaulting to unpruned grid for atomic number  78.
 Defaulting to unpruned grid for atomic number  78.
 Defaulting to unpruned grid for atomic number  78.
 Defaulting to unpruned grid for atomic number  78.
 Defaulting to unpruned grid for atomic number  78.
 Defaulting to unpruned grid for atomic number  78.
 Defaulting to unpruned grid for atomic number  78.
 Defaulting to unpruned grid for atomic number  78.
 Defaulting to unpruned grid for atomic number  78.
 Defaulting to unpruned grid for atomic number  78.
 Defaulting to unpruned grid for atomic number  78.
 Defaulting to unpruned grid for atomic number  78.
 Defaulting to unpruned grid for atomic number  78.
 Defaulting to unpruned grid for atomic number  78.
 Defaulting to unpruned grid for atomic number  78.
 Defaulting to unpruned grid for atomic number  78.
 Defaulting to unpruned grid for atomic number  78.
 Defaulting to unpruned grid for atomic number  78.
 Defaulting to unpruned grid for atomic number  78.
 Error on total polarization charges =  0.01272
 SCF Done:  E(RB3LYP) =  -2624.91804044     A.U. after   19 cycles
             Convg  =    0.3801D-08             -V/T =  2.0347
   1 Symmetry operations used in ECPInt.
 ECPInt:  NShTT=    2211 NPrTT=   10318 LenC2=    2067 LenP2D=    6900.
 LDataN:  DoStor=T MaxTD1= 7 Len=  274
 D1PCM: PCM CHGder 1st derivatives, ID1Alg=3 FixD1E=F DoIter=F DoCFld=F I1PDM=0.
 Calling FoFJK, ICntrl=      2127 FMM=F ISym2X=0 I1Cent= 0 IOpClX= 0 NMat=1 NMatS=1 NMatT=0.
 Defaulting to unpruned grid for atomic number  78.
 Defaulting to unpruned grid for atomic number  78.
 Defaulting to unpruned grid for atomic number  78.
 Defaulting to unpruned grid for atomic number  78.
 Defaulting to unpruned grid for atomic number  78.
 Defaulting to unpruned grid for atomic number  78.
 Defaulting to unpruned grid for atomic number  78.
 Defaulting to unpruned grid for atomic number  78.
 Defaulting to unpruned grid for atomic number  78.
 Defaulting to unpruned grid for atomic number  78.
 Defaulting to unpruned grid for atomic number  78.
 Defaulting to unpruned grid for atomic number  78.
 Defaulting to unpruned grid for atomic number  78.
 Defaulting to unpruned grid for atomic number  78.
 Defaulting to unpruned grid for atomic number  78.
 Defaulting to unpruned grid for atomic number  78.
 Defaulting to unpruned grid for atomic number  78.
 Defaulting to unpruned grid for atomic number  78.
 Defaulting to unpruned grid for atomic number  78.
 Defaulting to unpruned grid for atomic number  78.
 Defaulting to unpruned grid for atomic number  78.
 Defaulting to unpruned grid for atomic number  78.
 Defaulting to unpruned grid for atomic number  78.
 Defaulting to unpruned grid for atomic number  78.
 ***** Axes restored to original set *****
 -------------------------------------------------------------------
 Center     Atomic                   Forces (Hartrees/Bohr)
 Number     Number              X              Y              Z
 -------------------------------------------------------------------
      1       78           0.003094584    0.001531216    0.007364654
      2        7           0.022897900    0.000691334   -0.033404345
      3        8          -0.011051220    0.012492568    0.014025365
      4        8          -0.011526628   -0.013822474    0.013074791
      5       17          -0.001313682   -0.000108916   -0.001281679
      6       17          -0.000621664   -0.001310277    0.000459673
      7       17           0.001414154   -0.000464903   -0.000383559
      8       17          -0.001503460    0.001305293    0.001566936
      9       17          -0.001389984   -0.000313841   -0.001421837
 -------------------------------------------------------------------
 Cartesian Forces:  Max     0.033404345 RMS     0.009990940

 GradGradGradGradGradGradGradGradGradGradGradGradGradGradGradGradGradGrad
 Berny optimization.
 Using GEDIIS/GDIIS optimizer.
 Internal  Forces:  Max     0.018409777 RMS     0.006528839
 Search for a local minimum.
 Step number   3 out of a maximum of   41
 All quantities printed in internal units (Hartrees-Bohrs-Radians)
 Mixed Optimization -- RFO/linear search
 Update second derivatives using D2CorX and points    2    3
 DE= -1.14D-02 DEPred=-1.29D-02 R= 8.84D-01
 SS=  1.41D+00  RLast= 5.72D-01 DXNew= 8.4853D-01 1.7156D+00
 Trust test= 8.84D-01 RLast= 5.72D-01 DXMaxT set to 8.49D-01
 Use linear search instead of GDIIS.
     Eigenvalues ---    0.00230   0.00713   0.12287   0.12574   0.13430
     Eigenvalues ---    0.13889   0.15185   0.15351   0.15688   0.16699
     Eigenvalues ---    0.17649   0.23282   0.25000   0.25000   0.25000
     Eigenvalues ---    0.25000   0.25000   0.25678   0.32495   1.07264
     Eigenvalues ---    1.907031000.000001000.000001000.000001000.00000
     Eigenvalues --- 1000.000001000.000001000.000001000.000001000.00000
     Eigenvalues --- 1000.00000
 RFO step:  Lambda=-1.63370159D-02 EMin= 2.30214592D-03
 Quartic linear search produced a step of -0.17124.
 Iteration  1 RMS(Cart)=  0.10194638 RMS(Int)=  0.04493979
 Iteration  2 RMS(Cart)=  0.03515840 RMS(Int)=  0.01511724
 Iteration  3 RMS(Cart)=  0.00163172 RMS(Int)=  0.01500745
 Iteration  4 RMS(Cart)=  0.00001663 RMS(Int)=  0.01500744
 Iteration  5 RMS(Cart)=  0.00000048 RMS(Int)=  0.01500744
 Variable       Old X    -DE/DX   Delta X   Delta X   Delta X     New X
                                 (Linear)    (Quad)   (Total)
    R1        4.06264  -0.00306  -0.02407   0.09253   0.06846   4.13110
    R2        4.57381  -0.00162   0.00755  -0.04201  -0.03446   4.53935
    R3        4.57579  -0.00125  -0.00178   0.00037  -0.00140   4.57438
    R4        4.57171  -0.00049   0.00912  -0.04190  -0.03278   4.53893
    R5        4.58236  -0.00153  -0.00141  -0.00279  -0.00420   4.57816
    R6        4.67833  -0.00063  -0.02098   0.08918   0.06820   4.74653
    R7        2.26794   0.01745  -0.01364   0.08742   0.07377   2.34171
    R8        2.26846   0.01841  -0.01372   0.08815   0.07444   2.34290
    A1        1.56351   0.00006   0.01331  -0.06104  -0.04778   1.51573
    A2        1.59240   0.00137   0.00129  -0.00290  -0.00166   1.59075
    A3        1.49540   0.00175   0.00273  -0.00648  -0.00378   1.49162
    A4        1.63243  -0.00753  -0.00933   0.01686   0.00749   1.63993
    A5        1.56389   0.00000  -0.00603   0.02610   0.01999   1.58388
    A6        1.58428  -0.00120  -0.00259   0.00400   0.00117   1.58545
    A7        1.58285   0.00310  -0.01422   0.07788   0.06363   1.64648
    A8        1.57383   0.00091   0.00127   0.00177   0.00300   1.57683
    A9        1.52330   0.00484   0.00444  -0.00289   0.00149   1.52479
   A10        1.56807  -0.00036   0.00610  -0.02500  -0.01903   1.54904
   A11        1.64125  -0.00484  -0.00175  -0.00974  -0.01151   1.62974
   A12        1.53502   0.00130   0.00360  -0.01130  -0.00776   1.52726
   A13        2.01156   0.01031   0.00386   0.05580   0.01262   2.02418
   A14        2.03274   0.00590  -0.00358   0.07541   0.02487   2.05762
   A15        2.20912  -0.01304   0.00382  -0.00668  -0.05249   2.15662
    D1        1.88768  -0.00453  -0.03676  -0.22031  -0.25359   1.63409
    D2       -1.49616   0.00609   0.02295   0.27461   0.29392  -1.20223
    D3        0.32396  -0.00452  -0.03109  -0.24512  -0.27267   0.05129
    D4       -3.05988   0.00610   0.02862   0.24980   0.27485  -2.78503
    D5       -1.24825  -0.00536  -0.03234  -0.24698  -0.27572  -1.52398
    D6        1.65109   0.00525   0.02736   0.24795   0.27179   1.92288
    D7       -2.81164  -0.00568  -0.03919  -0.22018  -0.25576  -3.06740
    D8        0.08770   0.00494   0.02052   0.27475   0.29176   0.37946
         Item               Value     Threshold  Converged?
 Maximum Force            0.018410     0.000450     NO 
 RMS     Force            0.006529     0.000300     NO 
 Maximum Displacement     0.341002     0.001800     NO 
 RMS     Displacement     0.125062     0.001200     NO 
 Predicted change in Energy=-1.282834D-02
 GradGradGradGradGradGradGradGradGradGradGradGradGradGradGradGradGradGrad

                          Input orientation:                          
 ---------------------------------------------------------------------
 Center     Atomic      Atomic             Coordinates (Angstroms)
 Number     Number       Type             X           Y           Z
 ---------------------------------------------------------------------
      1         78           0        0.117543   -0.028219   -0.072528
      2          7           0       -1.879417    0.063025    0.812223
      3          8           0       -2.233593    1.170912    1.239673
      4          8           0       -2.414845   -1.003962    1.146856
      5         17           0        0.902622   -0.701511    2.095540
      6         17           0        0.516928    2.296850    0.469815
      7         17           0       -0.966140    0.619471   -2.115872
      8         17           0       -0.105284   -2.343472   -0.750184
      9         17           0        2.400980   -0.056218   -1.118492
 ---------------------------------------------------------------------
                    Distance matrix (angstroms):
                    1          2          3          4          5
     1  Pt   0.000000
     2  N    2.186083   0.000000
     3  O    2.947478   1.239180   0.000000
     4  O    2.975224   1.239808   2.184386   0.000000
     5  Cl   2.402122   3.157714   3.751575   3.463678   0.000000
     6  Cl   2.420660   3.293886   3.070143   4.466434   3.432479
     7  Cl   2.401900   3.117282   3.629078   3.921692   4.793042
     8  Cl   2.422657   3.373410   4.565099   3.275229   3.436576
     9  Cl   2.511755   4.697200   5.342851   5.405756   3.604370
                    6          7          8          9
     6  Cl   0.000000
     7  Cl   3.420361   0.000000
     8  Cl   4.838196   3.374197   0.000000
     9  Cl   3.407243   3.576146   3.412996   0.000000
 Stoichiometry    Cl5NO2Pt(2-)
 Framework group  C1[X(Cl5NO2Pt)]
 Deg. of freedom    21
 Full point group                 C1      NOp   1
 Largest Abelian subgroup         C1      NOp   1
 Largest concise Abelian subgroup C1      NOp   1
                         Standard orientation:                         
 ---------------------------------------------------------------------
 Center     Atomic      Atomic             Coordinates (Angstroms)
 Number     Number       Type             X           Y           Z
 ---------------------------------------------------------------------
      1         78           0        0.099048    0.000056   -0.005900
      2          7           0       -2.069239    0.126636    0.242027
      3          8           0       -2.680725   -0.951100    0.230299
      4          8           0       -2.611848    1.224748    0.050070
      5         17           0       -0.283292    0.332773   -2.353943
      6         17           0       -0.025261   -2.400254   -0.293387
      7         17           0        0.164223   -0.274392    2.379378
      8         17           0        0.442804    2.377133    0.311284
      9         17           0        2.589731   -0.216438   -0.247859
 ---------------------------------------------------------------------
 Rotational constants (GHZ):      0.5960440      0.5416848      0.5173453
 Basis read from rwf:  (5D, 7F)
 Pseudo-potential data read from rwf file.
 There are   154 symmetry adapted basis functions of A   symmetry.
 Integral buffers will be    131072 words long.
 Raffenetti 2 integral format.
 Two-electron integral symmetry is turned on.
   154 basis functions,   303 primitive gaussians,   164 cartesian basis functions
    64 alpha electrons       64 beta electrons
       nuclear repulsion energy      1169.3649116665 Hartrees.
 NAtoms=    9 NActive=    9 NUniq=    9 SFac= 7.50D-01 NAtFMM=   80 NAOKFM=F Big=F
 ------------------------------------------------------------------------------
 Polarizable Continuum Model (PCM)
 =================================
 Model                : PCM.
 Atomic radii         : UFF (Universal Force Field).
 Polarization charges : Total charges.
 Charge compensation  : None.
 Solution method      : Matrix inversion.
 Cavity type          : Scaled VdW (van der Waals Surface) (Alpha=1.100).
 Cavity algorithm     : GePol (No added spheres)
                        Default sphere list used, NSphG=    9.
                        Lebedev-Laikov grids with approx.  5.0 points / Ang**2.
                        Smoothing algorithm: Karplus/York (Gamma=1.0000).
                        Polarization charges: spherical gaussians, with
                                              point-specific exponents (IZeta= 3).
                        Self-potential: point-specific (ISelfS= 7).
                        Self-field    : sphere-specific E.n sum rule (ISelfD= 2).
 1st derivatives      : Analytical E(r).r(x)/FMM algorithm (CHGder, D1EAlg=3).
                        Cavity 1st derivative terms included.
 Solvent              : Water, Eps=  78.355300 Eps(inf)=   1.777849
 ------------------------------------------------------------------------------
 Spheres list:
 ISph  on   Nord    Re0     Alpha      Xe            Ye            Ze
    1  Pt      1    1.377   1.100      0.099048      0.000056     -0.005900
    2   N      2    1.830   1.100     -2.069239      0.126636      0.242027
    3   O      3    1.750   1.100     -2.680725     -0.951100      0.230299
    4   O      4    1.750   1.100     -2.611848      1.224748      0.050070
    5  Cl      5    1.973   1.100     -0.283292      0.332773     -2.353943
    6  Cl      6    1.973   1.100     -0.025261     -2.400254     -0.293387
    7  Cl      7    1.973   1.100      0.164223     -0.274392      2.379378
    8  Cl      8    1.973   1.100      0.442804      2.377133      0.311284
    9  Cl      9    1.973   1.100      2.589731     -0.216438     -0.247859
 ------------------------------------------------------------------------------
 One-electron integrals computed using PRISM.
   1 Symmetry operations used in ECPInt.
 ECPInt:  NShTT=    2211 NPrTT=   10318 LenC2=    2063 LenP2D=    6894.
 LDataN:  DoStor=T MaxTD1= 6 Len=  172
 NBasis=   154 RedAO= T  NBF=   154
 NBsUse=   154 1.00D-06 NBFU=   154
 Defaulting to unpruned grid for atomic number  78.
 Initial guess read from the read-write file.
 B after Tr=     0.000000    0.000000    0.000000
         Rot=    1.000000    0.000000    0.000000    0.000000 Ang=   0.00 deg.
 Initial guess orbital symmetries:
       Occupied  (A) (A) (A) (A) (A) (A) (A) (A) (A) (A) (A) (A)
                 (A) (A) (A) (A) (A) (A) (A) (A) (A) (A) (A) (A)
                 (A) (A) (A) (A) (A) (A) (A) (A) (A) (A) (A) (A)
                 (A) (A) (A) (A) (A) (A) (A) (A) (A) (A) (A) (A)
                 (A) (A) (A) (A) (A) (A) (A) (A) (A) (A) (A) (A)
                 (A) (A) (A) (A)
       Virtual   (A) (A) (A) (A) (A) (A) (A) (A) (A) (A) (A) (A)
                 (A) (A) (A) (A) (A) (A) (A) (A) (A) (A) (A) (A)
                 (A) (A) (A) (A) (A) (A) (A) (A) (A) (A) (A) (A)
                 (A) (A) (A) (A) (A) (A) (A) (A) (A) (A) (A) (A)
                 (A) (A) (A) (A) (A) (A) (A) (A) (A) (A) (A) (A)
                 (A) (A) (A) (A) (A) (A) (A) (A) (A) (A) (A) (A)
[...]
                    19                     20                     21
                     A                      A                      A
 Frequencies --   835.2889              1406.7706              1638.6151
 Red. masses --    15.2976                15.1248                14.6408
 Frc consts  --     6.2885                17.6354                23.1616
 IR Inten    --   235.5902               825.7770               541.9356
  Atom  AN      X      Y      Z        X      Y      Z        X      Y      Z
     1  78     0.01   0.00   0.00     0.00   0.00   0.00     0.00   0.00   0.00
     2   7    -0.60   0.00   0.00     0.66   0.00   0.00     0.00   0.82   0.02
     3   8     0.22   0.52   0.01    -0.28   0.45   0.01     0.18  -0.36  -0.01
     4   8     0.22  -0.52  -0.01    -0.28  -0.45  -0.01    -0.18  -0.36  -0.01
     5  17     0.00   0.00   0.00     0.00   0.00   0.00     0.00   0.00   0.00
     6  17     0.00   0.00   0.00     0.00   0.00   0.00     0.00   0.00   0.00
     7  17     0.00   0.00   0.00     0.00   0.00   0.00     0.00   0.00   0.00
     8  17     0.00   0.00   0.00     0.00   0.00   0.00     0.00   0.00   0.00
     9  17    -0.02   0.00   0.00     0.01   0.00   0.00     0.00   0.00   0.00

 -------------------
 - Thermochemistry -
 -------------------
 Temperature   298.150 Kelvin.  Pressure   1.00000 Atm.
 Atom     1 has atomic number 78 and mass 194.96480
 Atom     2 has atomic number  7 and mass  14.00307
 Atom     3 has atomic number  8 and mass  15.99491
 Atom     4 has atomic number  8 and mass  15.99491
 Atom     5 has atomic number 17 and mass  34.96885
 Atom     6 has atomic number 17 and mass  34.96885
 Atom     7 has atomic number 17 and mass  34.96885
 Atom     8 has atomic number 17 and mass  34.96885
 Atom     9 has atomic number 17 and mass  34.96885
 Molecular mass:   415.80197 amu.
 Principal axes and moments of inertia in atomic units:
                           1         2         3
     Eigenvalues --  3045.022543265.153583350.60384
           X            1.00000   0.00009  -0.00022
           Y           -0.00009   1.00000   0.00081
           Z            0.00022  -0.00081   1.00000
 This molecule is an asymmetric top.
 Rotational symmetry number  1.
 Warning -- assumption of classical behavior for rotation
           may cause significant error
 Rotational temperatures (Kelvin)      0.02844     0.02653     0.02585
 Rotational constants (GHZ):           0.59269     0.55273     0.53863
 Zero-point vibrational energy      46724.2 (Joules/Mol)
                                   11.16735 (Kcal/Mol)
 Warning -- explicit consideration of  18 degrees of freedom as
           vibrations may cause significant error
 Vibrational temperatures:     79.96   160.29   169.47   179.91   180.29
          (Kelvin)            189.52   191.71   211.36   221.34   222.38
                              373.70   392.16   413.33   425.08   433.16
                              441.39   488.66   882.14  1201.79  2024.03
                             2357.60
 
 Zero-point correction=                           0.017796 (Hartree/Particle)
 Thermal correction to Energy=                    0.030737
 Thermal correction to Enthalpy=                  0.031681
 Thermal correction to Gibbs Free Energy=        -0.024125
 Sum of electronic and zero-point Energies=          -2624.906506
 Sum of electronic and thermal Energies=             -2624.893566
 Sum of electronic and thermal Enthalpies=           -2624.892621
 Sum of electronic and thermal Free Energies=        -2624.948427
 
                     E (Thermal)             CV                S
                      KCal/Mol        Cal/Mol-Kelvin    Cal/Mol-Kelvin
 Total                   19.288             38.737            117.453
 Electronic               0.000              0.000              0.000
 Translational            0.889              2.981             43.966
 Rotational               0.889              2.981             31.877
 Vibrational             17.510             32.776             41.610
 Vibration     1          0.596              1.975              4.608
 Vibration     2          0.607              1.940              3.244
 Vibration     3          0.608              1.935              3.136
 Vibration     4          0.610              1.928              3.021
 Vibration     5          0.610              1.928              3.017
 Vibration     6          0.612              1.922              2.921
 Vibration     7          0.613              1.920              2.899
 Vibration     8          0.617              1.906              2.712
 Vibration     9          0.619              1.898              2.624
 Vibration    10          0.620              1.898              2.615
 Vibration    11          0.668              1.746              1.664
 Vibration    12          0.676              1.724              1.580
 Vibration    13          0.684              1.697              1.490
 Vibration    14          0.690              1.682              1.443
 Vibration    15          0.693              1.672              1.411
 Vibration    16          0.697              1.661              1.380
 Vibration    17          0.720              1.596              1.214
 Vibration    18          0.972              1.004              0.428
                       Q            Log10(Q)             Ln(Q)
 Total Bot       0.124938D+12         11.096694         25.551083
 Total V=0       0.191607D+20         19.282411         44.399391
 Vib (Bot)       0.181449D-03         -3.741246         -8.614537
 Vib (Bot)    1  0.371765D+01          0.570268          1.313091
 Vib (Bot)    2  0.183782D+01          0.264304          0.608582
 Vib (Bot)    3  0.173587D+01          0.239518          0.551510
 Vib (Bot)    4  0.163237D+01          0.212819          0.490034
 Vib (Bot)    5  0.162881D+01          0.211871          0.487851
 Vib (Bot)    6  0.154699D+01          0.189487          0.436309
 Vib (Bot)    7  0.152875D+01          0.184336          0.424450
 Vib (Bot)    8  0.138154D+01          0.140364          0.323201
 Vib (Bot)    9  0.131661D+01          0.119458          0.275061
 Vib (Bot)   10  0.131015D+01          0.117319          0.270138
 Vib (Bot)   11  0.747916D+00         -0.126147         -0.290465
 Vib (Bot)   12  0.708123D+00         -0.149891         -0.345137
 Vib (Bot)   13  0.666650D+00         -0.176102         -0.405490
 Vib (Bot)   14  0.645340D+00         -0.190212         -0.437979
 Vib (Bot)   15  0.631303D+00         -0.199762         -0.459970
 Vib (Bot)   16  0.617527D+00         -0.209344         -0.482033
 Vib (Bot)   17  0.546843D+00         -0.262137         -0.603594
 Vib (Bot)   18  0.240251D+00         -0.619336         -1.426073
 Vib (V=0)       0.278273D+05          4.444470         10.233771
 Vib (V=0)    1  0.425112D+01          0.628504          1.447183
 Vib (V=0)    2  0.240462D+01          0.381047          0.877394
 Vib (V=0)    3  0.230645D+01          0.362944          0.835709
 Vib (V=0)    4  0.220723D+01          0.343848          0.791739
 Vib (V=0)    5  0.220383D+01          0.343178          0.790196
 Vib (V=0)    6  0.212578D+01          0.327519          0.754140
 Vib (V=0)    7  0.210844D+01          0.323961          0.745947
 Vib (V=0)    8  0.196924D+01          0.294298          0.677647
 Vib (V=0)    9  0.190836D+01          0.280659          0.646242
 Vib (V=0)   10  0.190231D+01          0.279282          0.643070
 Vib (V=0)   11  0.139965D+01          0.146021          0.336225
 Vib (V=0)   12  0.136686D+01          0.135723          0.312513
 Vib (V=0)   13  0.133332D+01          0.124934          0.287672
 Vib (V=0)   14  0.131637D+01          0.119379          0.274879
 Vib (V=0)   15  0.130532D+01          0.115718          0.266449
 Vib (V=0)   16  0.129457D+01          0.112125          0.258177
 Vib (V=0)   17  0.124097D+01          0.093761          0.215894
 Vib (V=0)   18  0.105473D+01          0.023139          0.053280
 Electronic      0.100000D+01          0.000000          0.000000
 Translational   0.333261D+09          8.522785         19.624438
 Rotational      0.206612D+07          6.315155         14.541182
 ***** Axes restored to original set *****
 -------------------------------------------------------------------
 Center     Atomic                   Forces (Hartrees/Bohr)
 Number     Number              X              Y              Z
 -------------------------------------------------------------------
      1       78           0.000031479    0.000004356   -0.000035920
      2        7          -0.000028921    0.000032584    0.000006909
      3        8          -0.000004332   -0.000078005   -0.000082452
      4        8           0.000024141    0.000015732    0.000086049
      5       17           0.000050658    0.000173740    0.000037570
      6       17          -0.000039359    0.000045453   -0.000193312
      7       17          -0.000048316   -0.000187875   -0.000032076
      8       17           0.000040209   -0.000049821    0.000186757
      9       17          -0.000025559    0.000043836    0.000026476
 -------------------------------------------------------------------
 Cartesian Forces:  Max     0.000193312 RMS     0.000081976

 GradGradGradGradGradGradGradGradGradGradGradGradGradGradGradGradGradGrad
 Berny optimization.
 Internal  Forces:  Max     0.000120345 RMS     0.000039542
 Search for a local minimum.
 Step number   1 out of a maximum of    2
 All quantities printed in internal units (Hartrees-Bohrs-Radians)
 Second derivative matrix not updated -- analytic derivatives used.
     Eigenvalues ---    0.00233   0.04405   0.07725   0.07941   0.08797
     Eigenvalues ---    0.08933   0.09867   0.10341   0.10793   0.10928
     Eigenvalues ---    0.11054   0.11999   0.13380   0.18496   0.20116
     Eigenvalues ---    0.22634   0.22713   0.25102   0.32613   0.59580
     Eigenvalues ---    0.849941000.000001000.000001000.000001000.00000
     Eigenvalues --- 1000.000001000.000001000.000001000.000001000.00000
     Eigenvalues --- 1000.00000
 Angle between quadratic step and forces=  67.88 degrees.
 Linear search not attempted -- first point.
 Iteration  1 RMS(Cart)=  0.00108015 RMS(Int)=  0.00000059
 Iteration  2 RMS(Cart)=  0.00000062 RMS(Int)=  0.00000003
 Variable       Old X    -DE/DX   Delta X   Delta X   Delta X     New X
                                 (Linear)    (Quad)   (Total)
    R1        3.96825   0.00001   0.00000   0.00020   0.00020   3.96844
    R2        4.56345   0.00000   0.00000   0.00000   0.00000   4.56346
    R3        4.56450  -0.00002   0.00000  -0.00014  -0.00014   4.56435
    R4        4.56344  -0.00002   0.00000  -0.00010  -0.00010   4.56334
    R5        4.56433  -0.00002   0.00000  -0.00011  -0.00011   4.56423
    R6        4.65671  -0.00004   0.00000  -0.00042  -0.00042   4.65630
    R7        2.29555  -0.00005   0.00000  -0.00005  -0.00005   2.29550
    R8        2.29545   0.00002   0.00000   0.00003   0.00003   2.29548
    A1        1.56634   0.00005   0.00000   0.00034   0.00034   1.56668
    A2        1.56986   0.00007   0.00000   0.00048   0.00048   1.57033
    A3        1.56690  -0.00004   0.00000  -0.00015  -0.00015   1.56675
    A4        1.57032  -0.00006   0.00000  -0.00064  -0.00064   1.56968
    A5        1.55482   0.00001   0.00000   0.00012   0.00012   1.55494
    A6        1.58675  -0.00001   0.00000  -0.00008  -0.00008   1.58667
    A7        1.57533  -0.00002   0.00000  -0.00030  -0.00030   1.57502
    A8        1.58658   0.00000   0.00000   0.00006   0.00006   1.58664
    A9        1.57220  -0.00012   0.00000  -0.00079  -0.00079   1.57142
   A10        1.55502   0.00000   0.00000  -0.00010  -0.00010   1.55493
   A11        1.57461   0.00002   0.00000   0.00011   0.00011   1.57473
   A12        1.57080   0.00011   0.00000   0.00095   0.00095   1.57175
   A13        2.05894  -0.00003   0.00000  -0.00022  -0.00022   2.05872
   A14        2.05845   0.00002   0.00000   0.00021   0.00021   2.05866
   A15        2.16580   0.00001   0.00000   0.00001   0.00001   2.16580
    D1        2.31990   0.00002   0.00000   0.00182   0.00182   2.32173
    D2       -0.82159   0.00000   0.00000   0.00162   0.00162  -0.81998
    D3        0.76508   0.00001   0.00000   0.00171   0.00171   0.76679
    D4       -2.37641  -0.00001   0.00000   0.00150   0.00150  -2.37491
    D5       -0.82150   0.00001   0.00000   0.00165   0.00165  -0.81985
    D6        2.32019  -0.00001   0.00000   0.00145   0.00145   2.32163
    D7       -2.37653   0.00001   0.00000   0.00175   0.00174  -2.37478
    D8        0.76516  -0.00001   0.00000   0.00154   0.00154   0.76670
         Item               Value     Threshold  Converged?
 Maximum Force            0.000120     0.000450     YES
 RMS     Force            0.000040     0.000300     YES
 Maximum Displacement     0.003151     0.001800     NO 
 RMS     Displacement     0.001080     0.001200     YES
 Predicted change in Energy=-2.034933D-07
 GradGradGradGradGradGradGradGradGradGradGradGradGradGradGradGradGradGrad

 1\1\GINC-NEQC23\Freq\RB3LYP\Gen\Cl5N1O2Pt1(2-)\GUEST\01-Dec-2021\0\\#N
  Geom=AllCheck Guess=TCheck SCRF=Check GenChk RB3LYP/ChkBas Freq\\Estr
 utura 25\\-2,1\Pt,0.0945214179,-0.0133462521,-0.0487204386\N,-1.801146
 259,0.0445105566,0.8527807326\O,-2.4803907476,1.0379939504,0.687745497
 3\O,-2.149909676,-0.9177675242,1.506905399\Cl,1.048140115,-0.785573192
 9,2.0311582525\Cl,0.4967367021,2.261606584,0.6563329377\Cl,-0.87721943
 66,0.759866008,-2.1198181952\Cl,-0.3107538617,-2.2881369005,-0.7522475
 916\Cl,2.3188157458,-0.0822762294,-1.1071045938\\Version=EM64L-G09RevA
 .02\State=1-A\HF=-2624.9243024\RMSD=2.265e-09\RMSF=8.198e-05\ZeroPoint
 =0.0177963\Thermal=0.0307367\Dipole=-0.5153051,0.0156646,0.2449629\Dip
 oleDeriv=1.1854541,0.0419429,0.1200289,0.0415774,1.2853166,0.0799469,0
 .1198955,0.080143,1.376822,2.5679111,-0.3177393,-0.8929347,-0.3174479,
 1.9330566,-0.5995318,-0.8930523,-0.5984353,1.1631966,-1.7572195,0.5823
 937,0.4293408,0.6809938,-1.0379447,0.0446484,0.3816551,0.0887132,-0.52
 00868,-1.4417199,-0.2606958,0.6972106,-0.3578298,-0.9816312,0.5260719,
 0.74513,0.4742386,-0.8920653,-0.3846747,0.1668727,-0.3757052,0.1647853
 ,-0.2663418,0.2972256,-0.436916,0.3077132,-1.0286255,-0.2165433,-0.194
 7192,-0.0229096,-0.228207,-1.2046564,-0.3035657,-0.064302,-0.3242122,-
 0.2675458,-0.3622358,0.128808,-0.4149159,0.1233964,-0.2638768,0.317886
 2,-0.3534109,0.3232208,-1.0542159,-0.2182403,-0.180433,-0.0676214,-0.1
 403181,-1.2074757,-0.3441901,-0.0275436,-0.3320712,-0.2634624,-1.37273
 17,0.0335701,0.5275065,0.0330499,-0.2564465,-0.0184915,0.5285442,-0.01
 93098,-0.5140169\Polar=173.9557663,-2.1270906,175.3332157,-3.8440787,-
 4.3318969,168.1695695\PG=C01 [X(Cl5N1O2Pt1)]\NImag=0\\0.22166256,-0.00
 149289,0.27812869,0.02040476,-0.00736606,0.25555341,-0.06661978,-0.004
 17521,0.00450330,0.50202621,-0.00418815,-0.03655962,-0.01088947,-0.118
 00066,0.80502894,0.00447965,-0.01095060,-0.05854894,-0.10685642,-0.263
 95256,0.34877133,-0.00803835,0.02350799,-0.00061559,-0.27833037,0.2391
 9280,-0.01045883,0.25643498,0.00968520,-0.00549939,0.00529693,0.234101
 77,-0.39655378,0.05635814,-0.27452537,0.51951778,0.00608413,-0.0014156
 0,0.01237974,-0.00785214,0.05403673,-0.07842584,0.02254491,-0.11371342
 ,0.06900444,0.00064452,-0.01592847,0.01482382,-0.16002705,-0.11803167,
 0.11072255,0.04128106,0.03106061,-0.02582106,0.13073422,-0.00210953,-0
 .00394428,0.01031713,-0.11308169,-0.37541557,0.21623839,0.01447418,-0.
 11892248,0.06273932,0.10176151,0.49700052,0.00813276,0.01716066,0.0021
 0496,0.10813566,0.21888978,-0.21805091,-0.01742843,0.05458290,0.001703
 55,-0.10354380,-0.28713816,0.21755626,-0.02613973,0.00850312,-0.023705
 32,-0.00589711,-0.00292998,-0.00043437,0.00046139,0.00101126,0.0000306
 9,-0.00181427,0.00183658,-0.00290957,0.03024834,0.00928083,-0.02581171
 ,0.01954836,0.00040996,-0.00127180,0.00155721,0.00002403,0.00072065,-0
 .00044882,-0.00134365,0.00064059,-0.00130953,-0.00952125,0.02594801,-0
 .02467864,0.02020526,-0.06822546,0.00162559,0.00070435,0.00029307,-0.0
 0086529,-0.00031663,0.00016649,-0.00050293,-0.00149804,0.00144404,0.02
 982694,-0.02314536,0.07942967,-0.01737093,-0.00976698,-0.00447843,-0.0
 0618885,0.00042229,-0.00125466,0.00011122,-0.00545325,0.00070652,0.000
 84680,-0.00073461,0.00065148,0.00114854,0.00162179,0.00000913,0.019361
 49,-0.01095857,-0.07930007,-0.01837496,-0.00058969,-0.00076146,-0.0001
 9996,-0.00142451,0.00003046,0.00105578,-0.00063838,0.00026785,0.000133
 15,0.00069573,-0.00309941,0.00167569,0.01377559,0.09378744,-0.00405606
 ,-0.01923108,-0.02343482,0.00178917,0.00138674,0.00057498,-0.00009142,
 0.00179084,-0.00016913,-0.00042279,-0.00028909,-0.00004184,-0.00008119
 ,0.00414960,0.00033735,0.00418037,0.02333689,0.02292633,-0.02678532,0.
 00976635,-0.02527377,-0.00252060,0.00254602,0.00418210,0.00157531,-0.0
 0235127,0.00244628,0.00062199,-0.00088366,-0.00066944,0.00130495,0.001
 79443,-0.00499171,-0.00047856,-0.00084935,-0.00146498,0.02971703,0.008
 77642,-0.02584025,0.01986384,0.00108046,-0.00143226,0.00103585,-0.0002
 4203,0.00080275,-0.00198772,-0.00035033,0.00078802,-0.00025007,0.00188
 573,0.00253691,0.00391843,-0.00182109,-0.00011078,-0.00453621,-0.01159
 874,0.02602951,-0.02427071,0.01960731,-0.06755144,0.00198631,-0.001959
 84,-0.00280757,0.00012037,0.00046457,-0.00222727,0.00025076,0.00054872
 ,-0.00006961,-0.00530104,0.00397338,-0.00738881,-0.00066965,-0.0019385
 1,-0.00256361,0.02928407,-0.02221001,0.08019266,-0.01777588,-0.0119006
 4,-0.00436049,-0.00236526,0.00105482,0.00481688,0.00024137,0.00020476,
 -0.00097038,-0.00006166,0.00480193,-0.00058597,-0.00084339,-0.00221213
 ,-0.00159905,0.00329162,-0.00229792,-0.00063747,0.00078906,0.00198569,
 -0.00044181,0.01874202,-0.01053636,-0.07927652,-0.01858600,0.00033976,
 -0.00081751,-0.00085894,0.00051308,0.00021622,-0.00036086,0.00173901,-
 0.00038118,-0.00042807,-0.00078741,-0.00008270,-0.00188331,-0.00255784
 ,-0.00943252,-0.00420279,0.00066297,-0.00310253,0.00172497,0.01317789,
 0.09388805,-0.00476963,-0.01819863,-0.02306167,0.00189098,0.00103272,-
 0.00321904,0.00007363,-0.00074013,0.00063031,0.00014781,-0.00311617,0.
 00019303,-0.00099484,-0.00433940,-0.00218844,-0.00074094,-0.00432407,0
 .00251680,-0.00020763,0.00401915,0.00069018,0.00354273,0.02368105,0.02
 370587,-0.05957708,0.00148672,0.01870172,0.01992281,-0.00006547,-0.005
 19691,-0.01373661,0.00626628,0.00283105,-0.01222561,-0.00606471,0.0082
 1731,0.00153127,-0.00005401,0.00117596,-0.00072134,0.00228709,0.000784
 38,-0.00422387,0.00028390,-0.00095831,-0.00201788,-0.00255110,0.001057
 88,0.07104830,0.00154305,-0.02189684,0.00019023,-0.00008470,0.00778308
 ,0.00077247,-0.00152017,-0.00031221,0.00009459,0.00173137,-0.00003347,
 -0.00164067,-0.00069377,0.00041946,0.00033961,0.00451410,-0.00138153,-
 0.00240491,0.00091325,0.00032863,-0.00021057,-0.00481442,-0.00101132,0
 .00198549,-0.00158870,0.01610422,0.01867375,0.00018875,-0.02921578,-0.
 00522245,0.00075155,0.01141293,0.00672065,-0.00372320,-0.00306230,0.00
 434563,0.00219791,-0.00483948,0.00356869,0.00001456,-0.00386791,0.0015
 9618,-0.00136402,-0.00014606,-0.00330494,0.00014675,0.00172546,0.00023
 556,0.00091394,0.00073294,-0.02661307,0.00087377,0.02726021\\-0.000031
 48,-0.00000436,0.00003592,0.00002892,-0.00003258,-0.00000691,0.0000043
 3,0.00007800,0.00008245,-0.00002414,-0.00001573,-0.00008605,-0.0000506
 6,-0.00017374,-0.00003757,0.00003936,-0.00004545,0.00019331,0.00004832
 ,0.00018787,0.00003208,-0.00004021,0.00004982,-0.00018676,0.00002556,-
 0.00004384,-0.00002648\\\@


 THERE IS SOMETHING FASCINATING ABOUT SCIENCE.
 ONE GETS SUCH WHOLESALE CONJECTURE OUT OF SUCH TRIFLING INVESTMENTS.

                                                       -- MARK TWAIN
 Job cpu time:  0 days  0 hours 42 minutes 19.2 seconds.
 File lengths (MBytes):  RWF=     78 Int=      0 D2E=      0 Chk=      5 Scr=      1
 Normal termination of Gaussian 09 at Wed Dec  1 05:00:08 2021.
