 Entering Gaussian System, Link 0=g09
 Input=estrutura27_D2O.com
 Output=estrutura27_D2O.log
 Initial command:
 /home/scr/programs/g09/l1.exe "/home/scr/diego/Gau-10585.inp" -scrdir="/home/scr/diego/"
 Entering Link 1 = /home/scr/programs/g09/l1.exe PID=     10587.
  
 Copyright (c) 1988,1990,1992,1993,1995,1998,2003,2009,2013,
            Gaussian, Inc.  All Rights Reserved.
  
 This is part of the Gaussian(R) 09 program.  It is based on
 the Gaussian(R) 03 system (copyright 2003, Gaussian, Inc.),
 the Gaussian(R) 98 system (copyright 1998, Gaussian, Inc.),
 the Gaussian(R) 94 system (copyright 1995, Gaussian, Inc.),
 the Gaussian 92(TM) system (copyright 1992, Gaussian, Inc.),
 the Gaussian 90(TM) system (copyright 1990, Gaussian, Inc.),
 the Gaussian 88(TM) system (copyright 1988, Gaussian, Inc.),
 the Gaussian 86(TM) system (copyright 1986, Carnegie Mellon
 University), and the Gaussian 82(TM) system (copyright 1983,
 Carnegie Mellon University). Gaussian is a federally registered
 trademark of Gaussian, Inc.
  
 This software contains proprietary and confidential information,
 including trade secrets, belonging to Gaussian, Inc.
  
 This software is provided under written license and may be
 used, copied, transmitted, or stored only in accord with that
 written license.
  
 The following legend is applicable only to US Government
 contracts under FAR:
  
                    RESTRICTED RIGHTS LEGEND
  
 Use, reproduction and disclosure by the US Government is
 subject to restrictions as set forth in subparagraphs (a)
 and (c) of the Commercial Computer Software - Restricted
 Rights clause in FAR 52.227-19.
  
 Gaussian, Inc.
 340 Quinnipiac St., Bldg. 40, Wallingford CT 06492
  
  
 ---------------------------------------------------------------
 Warning -- This program may not be used in any manner that
 competes with the business of Gaussian, Inc. or will provide
 assistance to any competitor of Gaussian, Inc.  The licensee
 of this program is prohibited from giving any competitor of
 Gaussian, Inc. access to this program.  By using this program,
 the user acknowledges that Gaussian, Inc. is engaged in the
 business of creating and licensing software in the field of
 computational chemistry and represents and warrants to the
 licensee that it is not a competitor of Gaussian, Inc. and that
 it will not use this program in any manner prohibited above.
 ---------------------------------------------------------------
  

 Cite this work as:
 Gaussian 09, Revision D.01,
 M. J. Frisch, G. W. Trucks, H. B. Schlegel, G. E. Scuseria, 
 M. A. Robb, J. R. Cheeseman, G. Scalmani, V. Barone, B. Mennucci, 
 G. A. Petersson, H. Nakatsuji, M. Caricato, X. Li, H. P. Hratchian, 
 A. F. Izmaylov, J. Bloino, G. Zheng, J. L. Sonnenberg, M. Hada, 
 M. Ehara, K. Toyota, R. Fukuda, J. Hasegawa, M. Ishida, T. Nakajima, 
 Y. Honda, O. Kitao, H. Nakai, T. Vreven, J. A. Montgomery, Jr., 
 J. E. Peralta, F. Ogliaro, M. Bearpark, J. J. Heyd, E. Brothers, 
 K. N. Kudin, V. N. Staroverov, T. Keith, R. Kobayashi, J. Normand, 
 K. Raghavachari, A. Rendell, J. C. Burant, S. S. Iyengar, J. Tomasi, 
 M. Cossi, N. Rega, J. M. Millam, M. Klene, J. E. Knox, J. B. Cross, 
 V. Bakken, C. Adamo, J. Jaramillo, R. Gomperts, R. E. Stratmann, 
 O. Yazyev, A. J. Austin, R. Cammi, C. Pomelli, J. W. Ochterski, 
 R. L. Martin, K. Morokuma, V. G. Zakrzewski, G. A. Voth, 
 P. Salvador, J. J. Dannenberg, S. Dapprich, A. D. Daniels, 
 O. Farkas, J. B. Foresman, J. V. Ortiz, J. Cioslowski, 
 and D. J. Fox, Gaussian, Inc., Wallingford CT, 2013.
 
 ******************************************
 Gaussian 09:  EM64L-G09RevD.01 24-Apr-2013
                18-Aug-2021 
 ******************************************
 %mem=15gb
 %nproc=8
 Will use up to    8 processors via shared memory.
 ------------------------------------------------------------
 #b3lyp/gen pseudo=read opt freq=noraman scrf=(solvent=water)
 ------------------------------------------------------------
 1/14=-1,18=20,19=15,26=3,38=1/1,3;
 2/9=110,12=2,17=6,18=5,40=1/2;
 3/5=7,11=2,16=1,17=8,25=1,30=1,70=2201,71=1,72=1,74=-5/1,2,3;
 4//1;
 5/5=2,38=5,53=1/2;
 6/7=2,8=2,9=2,10=2,28=1/1;
 7//1,2,3,16;
 1/14=-1,18=20,19=15,26=3/3(2);
 2/9=110/2;
 99//99;
 2/9=110/2;
 3/5=7,6=1,11=2,16=1,17=8,25=1,30=1,70=2205,71=1,72=1,74=-5,82=7/1,2,3;
 4/5=5,16=3,69=1/1;
 5/5=2,38=5,53=1/2;
 7//1,2,3,16;
 1/14=-1,18=20,19=15,26=3/3(-5);
 2/9=110/2;
 6/7=2,8=2,9=2,10=2,19=2,28=1/1;
 99/9=1/99;
 ------------
 Estrutura 27
 ------------
 Symbolic Z-matrix:
 Charge = -2 Multiplicity = 1
 Pt                   -0.31955   0.33835   0. 
 Cl                   -0.31955   2.61835   0. 
 Cl                   -2.59955   0.33835   0. 
 Br                   -0.31955  -2.09165   0. 
 N                     1.67045   0.33835   0. 
 O                     2.12378  -0.19364   1.16665 
 O                     2.12378   1.61469  -0.12262 
 Cl                   -0.31955   0.33835  -2.28 
 Cl                   -0.31955   0.33835   2.28 
 

 GradGradGradGradGradGradGradGradGradGradGradGradGradGradGradGradGradGrad
 Berny optimization.
 Initialization pass.
                           ----------------------------
                           !    Initial Parameters    !
                           ! (Angstroms and Degrees)  !
 --------------------------                            --------------------------
 ! Name  Definition              Value          Derivative Info.                !
 --------------------------------------------------------------------------------
 ! R1    R(1,2)                  2.28           estimate D2E/DX2                !
 ! R2    R(1,3)                  2.28           estimate D2E/DX2                !
 ! R3    R(1,4)                  2.43           estimate D2E/DX2                !
 ! R4    R(1,5)                  1.99           estimate D2E/DX2                !
 ! R5    R(1,8)                  2.28           estimate D2E/DX2                !
 ! R6    R(1,9)                  2.28           estimate D2E/DX2                !
 ! R7    R(5,6)                  1.36           estimate D2E/DX2                !
 ! R8    R(5,7)                  1.36           estimate D2E/DX2                !
 ! A1    A(2,1,3)               90.0            estimate D2E/DX2                !
 ! A2    A(2,1,5)               90.0            estimate D2E/DX2                !
 ! A3    A(2,1,8)               90.0            estimate D2E/DX2                !
 ! A4    A(2,1,9)               90.0            estimate D2E/DX2                !
 ! A5    A(3,1,4)               90.0            estimate D2E/DX2                !
 ! A6    A(3,1,8)               90.0            estimate D2E/DX2                !
 ! A7    A(3,1,9)               90.0            estimate D2E/DX2                !
 ! A8    A(4,1,5)               90.0            estimate D2E/DX2                !
 ! A9    A(4,1,8)               90.0            estimate D2E/DX2                !
 ! A10   A(4,1,9)               90.0            estimate D2E/DX2                !
 ! A11   A(5,1,8)               90.0            estimate D2E/DX2                !
 ! A12   A(5,1,9)               90.0            estimate D2E/DX2                !
 ! A13   A(1,5,6)              109.4712         estimate D2E/DX2                !
 ! A14   A(1,5,7)              109.4712         estimate D2E/DX2                !
 ! A15   A(6,5,7)              109.4713         estimate D2E/DX2                !
 ! A16   L(2,1,4,3,-1)         180.0            estimate D2E/DX2                !
 ! A17   L(3,1,5,2,-1)         180.0            estimate D2E/DX2                !
 ! A18   L(8,1,9,2,-1)         180.0            estimate D2E/DX2                !
 ! A19   L(2,1,4,3,-2)         180.0            estimate D2E/DX2                !
 ! A20   L(3,1,5,2,-2)         180.0            estimate D2E/DX2                !
 ! A21   L(8,1,9,2,-2)         180.0            estimate D2E/DX2                !
 ! D1    D(2,1,5,6)            114.5125         estimate D2E/DX2                !
 ! D2    D(2,1,5,7)             -5.4875         estimate D2E/DX2                !
 ! D3    D(4,1,5,6)            -65.4875         estimate D2E/DX2                !
 ! D4    D(4,1,5,7)            174.5125         estimate D2E/DX2                !
 ! D5    D(8,1,5,6)           -155.4875         estimate D2E/DX2                !
 ! D6    D(8,1,5,7)             84.5125         estimate D2E/DX2                !
 ! D7    D(9,1,5,6)             24.5125         estimate D2E/DX2                !
 ! D8    D(9,1,5,7)            -95.4875         estimate D2E/DX2                !
 --------------------------------------------------------------------------------
 Trust Radius=3.00D-01 FncErr=1.00D-07 GrdErr=1.00D-06
 Number of steps in this run=     47 maximum allowed number of steps=    100.
 GradGradGradGradGradGradGradGradGradGradGradGradGradGradGradGradGradGrad

                          Input orientation:                          
 ---------------------------------------------------------------------
 Center     Atomic      Atomic             Coordinates (Angstroms)
 Number     Number       Type             X           Y           Z
 ---------------------------------------------------------------------
      1         78           0       -0.319549    0.338346    0.000000
      2         17           0       -0.319549    2.618346    0.000000
      3         17           0       -2.599549    0.338346    0.000000
      4         35           0       -0.319549   -2.091654    0.000000
      5          7           0        1.670451    0.338346    0.000000
      6          8           0        2.123784   -0.193637    1.166655
      7          8           0        2.123784    1.614690   -0.122617
      8         17           0       -0.319549    0.338346   -2.280000
      9         17           0       -0.319549    0.338346    2.280000
 ---------------------------------------------------------------------
                    Distance matrix (angstroms):
                    1          2          3          4          5
     1  Pt   0.000000
     2  Cl   2.280000   0.000000
     3  Cl   2.280000   3.224407   0.000000
     4  Br   2.430000   4.710000   3.332161   0.000000
     5  N    1.990000   3.026301   4.270000   3.140860   0.000000
     6  O    2.759341   3.903615   4.894279   3.306574   1.360000
     7  O    2.759341   2.644284   4.894279   4.440934   1.360000
     8  Cl   2.280000   3.224407   3.224407   3.332161   3.026301
     9  Cl   2.280000   3.224407   3.224407   3.332161   3.026301
                    6          7          8          9
     6  O    0.000000
     7  O    2.220871   0.000000
     8  Cl   4.258205   3.500462   0.000000
     9  Cl   2.737228   3.656706   4.560000   0.000000
 Stoichiometry    BrCl4NO2Pt(2-)
 Framework group  C1[X(BrCl4NO2Pt)]
 Deg. of freedom    21
 Full point group                 C1      NOp   1
 Largest Abelian subgroup         C1      NOp   1
 Largest concise Abelian subgroup C1      NOp   1
                         Standard orientation:                         
 ---------------------------------------------------------------------
 Center     Atomic      Atomic             Coordinates (Angstroms)
 Number     Number       Type             X           Y           Z
 ---------------------------------------------------------------------
      1         78           0       -0.182408   -0.109205    0.021447
      2         17           0       -2.425785   -0.444876    0.251636
      3         17           0        0.224188   -2.015963    1.203543
      4         35           0        2.208559    0.248549   -0.223886
      5          7           0       -0.537288    1.555027   -1.010295
      6          8           0       -0.085241    2.628625   -0.308412
      7          8           0       -1.874968    1.681481   -1.220589
      8         17           0       -0.200882   -1.313364   -1.914544
      9         17           0       -0.163935    1.094953    1.957438
 ---------------------------------------------------------------------
 Rotational constants (GHZ):      0.6266430      0.4952935      0.4554519
 General basis read from cards:  (5D, 7F)
 ======================================================================================================
                                       Pseudopotential Parameters
 ======================================================================================================
  Center     Atomic      Valence      Angular      Power
  Number     Number     Electrons     Momentum     of R      Exponent        Coefficient   SO-Coeffient
 ======================================================================================================
    1         78           18
                                      G and up 
                                                     1      728.9394056       -0.16192680    0.00000000
                                                     2      320.6567800    -1320.28738520    0.00000000
                                                     2       52.8680174     -298.31781350    0.00000000
                                                     2       12.0280128      -87.58370650    0.00000000
                                                     2        3.5238913       -8.14932740    0.00000000
                                      S - G
                                                     0      409.4437358        2.73342180    0.00000000
                                                     1      274.5419231       59.70243290    0.00000000
                                                     2      127.5658570      891.45895500    0.00000000
                                                     2       32.9036631      368.44676560    0.00000000
                                                     2        5.0593880      238.02630900    0.00000000
                                                     2        4.1506556     -107.05564540    0.00000000
                                      P - G
                                                     0      466.1728892        1.88785680    0.00000000
                                                     1      120.7888259       76.01386290    0.00000000
                                                     2       36.4118791      343.55111160    0.00000000
                                                     2        5.6985408      119.49117860    0.00000000
                                      D - G
                                                     0      249.5650763        2.93436780    0.00000000
                                                     1      126.6678585       59.33065710    0.00000000
                                                     2       63.1430586      452.44451940    0.00000000
                                                     2       17.9059470      210.47694790    0.00000000
                                                     2        4.2239373       58.62541120    0.00000000
                                      F - G
                                                     0      121.8158799        3.95342530    0.00000000
                                                     1       60.8757030       53.85551820    0.00000000
                                                     2       31.4767147      247.43051330    0.00000000
                                                     2        9.8811751      127.81879760    0.00000000
                                                     2        2.7319874       15.37720460    0.00000000
    2         17
                                   No pseudopotential on this center.
    3         17
                                   No pseudopotential on this center.
    4         35
                                   No pseudopotential on this center.
    5          7
                                   No pseudopotential on this center.
    6          8
                                   No pseudopotential on this center.
    7          8
                                   No pseudopotential on this center.
    8         17
                                   No pseudopotential on this center.
    9         17
                                   No pseudopotential on this center.
 ======================================================================================================
 There are   180 symmetry adapted cartesian basis functions of A   symmetry.
 There are   168 symmetry adapted basis functions of A   symmetry.
   168 basis functions,   346 primitive gaussians,   180 cartesian basis functions
    73 alpha electrons       73 beta electrons
       nuclear repulsion energy      1544.9753543839 Hartrees.
 NAtoms=    9 NActive=    9 NUniq=    9 SFac= 1.00D+00 NAtFMM=   60 NAOKFM=F Big=F
 Integral buffers will be    131072 words long.
 Raffenetti 2 integral format.
 Two-electron integral symmetry is turned on.
 ------------------------------------------------------------------------------
 Polarizable Continuum Model (PCM)
 =================================
 Model                : PCM (using non-symmetric T matrix).
 Atomic radii         : UFF (Universal Force Field).
 Polarization charges : Total charges.
 Charge compensation  : None.
 Solution method      : On-the-fly selection.
 Cavity type          : Scaled VdW (van der Waals Surface) (Alpha=1.100).
 Cavity algorithm     : GePol (No added spheres)
                        Default sphere list used, NSphG=    9.
                        Lebedev-Laikov grids with approx.  5.0 points / Ang**2.
                        Smoothing algorithm: Karplus/York (Gamma=1.0000).
                        Polarization charges: spherical gaussians, with
                                              point-specific exponents (IZeta= 3).
                        Self-potential: point-specific (ISelfS= 7).
                        Self-field    : sphere-specific E.n sum rule (ISelfD= 2).
 1st derivatives      : Analytical E(r).r(x)/FMM algorithm (CHGder, D1EAlg=3).
                        Cavity 1st derivative terms included.
 Solvent              : Water, Eps=  78.355300 Eps(inf)=   1.777849
 ------------------------------------------------------------------------------
 Spheres list:
 ISph  on   Nord     Re0    Alpha      Xe            Ye            Ze
    1  Pt      1    1.3770  1.100     -0.182408     -0.109205      0.021447
    2  Cl      2    1.9735  1.100     -2.425785     -0.444876      0.251636
    3  Cl      3    1.9735  1.100      0.224188     -2.015963      1.203543
    4  Br      4    2.0945  1.100      2.208559      0.248549     -0.223886
    5   N      5    1.8300  1.100     -0.537288      1.555027     -1.010295
    6   O      6    1.7500  1.100     -0.085241      2.628625     -0.308412
    7   O      7    1.7500  1.100     -1.874968      1.681481     -1.220589
    8  Cl      8    1.9735  1.100     -0.200882     -1.313364     -1.914544
    9  Cl      9    1.9735  1.100     -0.163935      1.094953      1.957438
 ------------------------------------------------------------------------------
 One-electron integrals computed using PRISM.
   1 Symmetry operations used in ECPInt.
 ECPInt:  NShTT=    2485 NPrTT=   12117 LenC2=    2328 LenP2D=    8077.
 LDataN:  DoStor=T MaxTD1= 6 Len=  172
 NBasis=   168 RedAO= T EigKep=  5.55D-03  NBF=   168
 NBsUse=   168 1.00D-06 EigRej= -1.00D+00 NBFU=   168
 Defaulting to unpruned grid for atomic number  78.
 ExpMin= 2.90D-02 ExpMax= 1.13D+05 ExpMxC= 1.70D+04 IAcc=3 IRadAn=         5 AccDes= 0.00D+00
 Harris functional with IExCor=  402 and IRadAn=       5 diagonalized for initial guess.
 HarFok:  IExCor=  402 AccDes= 0.00D+00 IRadAn=         5 IDoV= 1 UseB2=F ITyADJ=14
 ICtDFT=  3500011 ScaDFX=  1.000000  1.000000  1.000000  1.000000
 Defaulting to unpruned grid for atomic number  78.
 Defaulting to unpruned grid for atomic number  78.
 Defaulting to unpruned grid for atomic number  78.
 Defaulting to unpruned grid for atomic number  78.
 Defaulting to unpruned grid for atomic number  78.
 Defaulting to unpruned grid for atomic number  78.
 Defaulting to unpruned grid for atomic number  78.
 Defaulting to unpruned grid for atomic number  78.
 FoFCou: FMM=F IPFlag=           0 FMFlag=      100000 FMFlg1=           0
         NFxFlg=           0 DoJE=T BraDBF=F KetDBF=T FulRan=T
         wScrn=  0.000000 ICntrl=     500 IOpCl=  0 I1Cent=   200000004 NGrid=           0
         NMat0=    1 NMatS0=      1 NMatT0=    0 NMatD0=    1 NMtDS0=    0 NMtDT0=    0
 Petite list used in FoFCou.
 Keep R1 ints in memory in canonical form, NReq=106018756.
 Requested convergence on RMS density matrix=1.00D-08 within 128 cycles.
 Requested convergence on MAX density matrix=1.00D-06.
 Requested convergence on             energy=1.00D-06.
 No special actions if energy rises.
 Defaulting to unpruned grid for atomic number  78.
 Defaulting to unpruned grid for atomic number  78.
 Defaulting to unpruned grid for atomic number  78.
 Defaulting to unpruned grid for atomic number  78.
 Defaulting to unpruned grid for atomic number  78.
 Defaulting to unpruned grid for atomic number  78.
 Defaulting to unpruned grid for atomic number  78.
 Defaulting to unpruned grid for atomic number  78.
 Inv3:  Mode=1 IEnd=     5467500.
 Iteration    1 A*A^-1 deviation from unit magnitude is 6.00D-15 for    319.
 Iteration    1 A*A^-1 deviation from orthogonality  is 3.41D-15 for    876    503.
 Iteration    1 A^-1*A deviation from unit magnitude is 5.77D-15 for    745.
 Iteration    1 A^-1*A deviation from orthogonality  is 2.62D-15 for   1346   1342.
 EnCoef did     4 forward-backward iterations
 EnCoef did   100 forward-backward iterations
 EnCoef did     4 forward-backward iterations
 Error on total polarization charges =  0.01490
 SCF Done:  E(RB3LYP) =  -4738.61380321     A.U. after   20 cycles
            NFock= 20  Conv=0.21D-08     -V/T= 2.0193

 **********************************************************************

            Population analysis using the SCF density.

 **********************************************************************

 Orbital symmetries:
       Occupied  (A) (A) (A) (A) (A) (A) (A) (A) (A) (A) (A) (A)
                 (A) (A) (A) (A) (A) (A) (A) (A) (A) (A) (A) (A)
                 (A) (A) (A) (A) (A) (A) (A) (A) (A) (A) (A) (A)
                 (A) (A) (A) (A) (A) (A) (A) (A) (A) (A) (A) (A)
                 (A) (A) (A) (A) (A) (A) (A) (A) (A) (A) (A) (A)
                 (A) (A) (A) (A) (A) (A) (A) (A) (A) (A) (A) (A)
                 (A)
       Virtual   (A) (A) (A) (A) (A) (A) (A) (A) (A) (A) (A) (A)
                 (A) (A) (A) (A) (A) (A) (A) (A) (A) (A) (A) (A)
                 (A) (A) (A) (A) (A) (A) (A) (A) (A) (A) (A) (A)
                 (A) (A) (A) (A) (A) (A) (A) (A) (A) (A) (A) (A)
                 (A) (A) (A) (A) (A) (A) (A) (A) (A) (A) (A) (A)
                 (A) (A) (A) (A) (A) (A) (A) (A) (A) (A) (A) (A)
                 (A) (A) (A) (A) (A) (A) (A) (A) (A) (A) (A) (A)
                 (A) (A) (A) (A) (A) (A) (A) (A) (A) (A) (A)
 The electronic state is 1-A.
 Alpha  occ. eigenvalues -- -482.74454-101.45007-101.44794-101.44604-101.44395
 Alpha  occ. eigenvalues --  -62.42621 -56.25809 -56.25520 -56.25515 -19.13452
 Alpha  occ. eigenvalues --  -19.13408 -14.48408  -9.40361  -9.40164  -9.39975
 Alpha  occ. eigenvalues --   -9.39784  -8.64393  -7.17165  -7.16962  -7.16779
 Alpha  occ. eigenvalues --   -7.16596  -7.16323  -7.16314  -7.16123  -7.16122
 Alpha  occ. eigenvalues --   -7.15937  -7.15920  -7.15743  -7.15717  -6.47588
 Alpha  occ. eigenvalues --   -6.46533  -6.46514  -4.02350  -2.59041  -2.58746
 Alpha  occ. eigenvalues --   -2.58731  -2.57903  -2.57902  -2.23970  -2.23537
 Alpha  occ. eigenvalues --   -2.23380  -1.08193  -0.92210  -0.78180  -0.75756
 Alpha  occ. eigenvalues --   -0.75438  -0.75195  -0.72196  -0.64240  -0.49012
 Alpha  occ. eigenvalues --   -0.45739  -0.45645  -0.42425  -0.41278  -0.40705
 Alpha  occ. eigenvalues --   -0.39521  -0.37907  -0.36676  -0.32492  -0.31870
 Alpha  occ. eigenvalues --   -0.28760  -0.27392  -0.26699  -0.26450  -0.26062
 Alpha  occ. eigenvalues --   -0.25701  -0.25385  -0.25174  -0.25005  -0.24809
 Alpha  occ. eigenvalues --   -0.24012  -0.23767  -0.22431
 Alpha virt. eigenvalues --   -0.12111  -0.08380  -0.04081   0.05555   0.05835
 Alpha virt. eigenvalues --    0.06237   0.14950   0.20229   0.20363   0.26564
 Alpha virt. eigenvalues --    0.28227   0.28628   0.37946   0.39117   0.40516
 Alpha virt. eigenvalues --    0.42035   0.48995   0.51633   0.57555   0.58257
 Alpha virt. eigenvalues --    0.61662   0.61856   0.62352   0.65742   0.67140
 Alpha virt. eigenvalues --    0.67906   0.68359   0.69581   0.71973   0.73466
 Alpha virt. eigenvalues --    0.76752   0.77173   0.78482   0.79054   0.79397
 Alpha virt. eigenvalues --    0.79702   0.80210   0.81027   0.81196   0.82243
 Alpha virt. eigenvalues --    0.82370   0.82488   0.82675   0.83115   0.84237
 Alpha virt. eigenvalues --    0.85028   0.88751   0.90460   0.91457   0.93031
 Alpha virt. eigenvalues --    0.96781   0.97735   1.00265   1.01614   1.04274
 Alpha virt. eigenvalues --    1.05794   1.07412   1.10430   1.11656   1.12790
 Alpha virt. eigenvalues --    1.13612   1.17079   1.18817   1.20285   1.23153
 Alpha virt. eigenvalues --    1.24893   1.27019   1.31912   1.35423   1.45764
 Alpha virt. eigenvalues --    1.46321   1.48821   1.53015   1.53704   1.96606
 Alpha virt. eigenvalues --    1.99003   2.06554   2.30704   2.34664   2.66534
 Alpha virt. eigenvalues --    2.66958   2.68168   2.70209   2.76211   2.98524
 Alpha virt. eigenvalues --    3.02636   3.23102   3.45582   3.48335   3.50832
 Alpha virt. eigenvalues --    3.57684   3.59898   3.71171   3.72376   6.42339
          Condensed to atoms (all electrons):
               1          2          3          4          5          6
     1  Pt  17.262443   0.206621   0.239477   0.179145   0.020301  -0.015639
     2  Cl   0.206621  17.113789  -0.018669  -0.003307  -0.013648   0.000329
     3  Cl   0.239477  -0.018669  17.072182  -0.017032  -0.002921   0.000041
     4  Br   0.179145  -0.003307  -0.017032  35.070573  -0.020264   0.000281
     5  N    0.020301  -0.013648  -0.002921  -0.020264   6.705095   0.179474
     6  O   -0.015639   0.000329   0.000041   0.000281   0.179474   8.227632
     7  O   -0.004604  -0.027174   0.000037   0.000510   0.171003  -0.093327
     8  Cl   0.220226  -0.018733  -0.013122  -0.023949  -0.014998   0.000213
     9  Cl   0.220180  -0.019608  -0.018097  -0.021572  -0.014822  -0.014068
               7          8          9
     1  Pt  -0.004604   0.220226   0.220180
     2  Cl  -0.027174  -0.018733  -0.019608
     3  Cl   0.000037  -0.013122  -0.018097
     4  Br   0.000510  -0.023949  -0.021572
     5  N    0.171003  -0.014998  -0.014822
     6  O   -0.093327   0.000213  -0.014068
     7  O    8.240177  -0.000389   0.000441
     8  Cl  -0.000389  17.094695  -0.001917
     9  Cl   0.000441  -0.001917  17.092578
 Mulliken charges:
               1
     1  Pt  -0.328150
     2  Cl  -0.219602
     3  Cl  -0.241894
     4  Br  -0.164384
     5  N   -0.009220
     6  O   -0.284936
     7  O   -0.286674
     8  Cl  -0.242025
     9  Cl  -0.223115
 Sum of Mulliken charges =  -2.00000
 Mulliken charges with hydrogens summed into heavy atoms:
               1
     1  Pt  -0.328150
     2  Cl  -0.219602
     3  Cl  -0.241894
     4  Br  -0.164384
     5  N   -0.009220
     6  O   -0.284936
     7  O   -0.286674
     8  Cl  -0.242025
     9  Cl  -0.223115
 Electronic spatial extent (au):  <R**2>=           2796.7463
 Charge=             -2.0000 electrons
 Dipole moment (field-independent basis, Debye):
    X=              2.8562    Y=             -1.3026    Z=             -0.3654  Tot=              3.1604
 Quadrupole moment (field-independent basis, Debye-Ang):
   XX=           -138.0569   YY=           -140.9687   ZZ=           -131.7239
   XY=              2.4012   XZ=             -2.2890   YZ=             -0.0520
 Traceless Quadrupole moment (field-independent basis, Debye-Ang):
   XX=             -1.1404   YY=             -4.0522   ZZ=              5.1926
   XY=              2.4012   XZ=             -2.2890   YZ=             -0.0520
 Octapole moment (field-independent basis, Debye-Ang**2):
  XXX=             48.6685  YYY=            -19.7875  ZZZ=             -7.6732  XYY=             19.0318
  XXY=             -5.1964  XXZ=              4.5428  XZZ=             16.3973  YZZ=              4.5090
  YYZ=             -0.0351  XYZ=             -4.6800
 Hexadecapole moment (field-independent basis, Debye-Ang**3):
 XXXX=          -1383.9781 YYYY=          -1249.6561 ZZZZ=           -988.0810 XXXY=             19.8822
 XXXZ=            -17.8645 YYYX=             25.0046 YYYZ=             10.9628 ZZZX=            -12.4676
 ZZZY=            -17.7586 XXYY=           -431.7408 XXZZ=           -394.6435 YYZZ=           -365.7583
 XXYZ=             10.5238 YYXZ=            -13.9456 ZZXY=              9.8293
 N-N= 1.544975354384D+03 E-N=-1.439534735316D+04  KE= 4.648922768142D+03
   1 Symmetry operations used in ECPInt.
 ECPInt:  NShTT=    2485 NPrTT=   12117 LenC2=    2328 LenP2D=    8077.
 LDataN:  DoStor=T MaxTD1= 7 Len=  274
 D1PCM: PCM CHGder 1st derivatives, ID1Alg=3 FixD1E=F DoIter=F DoCFld=F I1PDM=0.
 Calling FoFJK, ICntrl=      2127 FMM=F ISym2X=0 I1Cent= 0 IOpClX= 0 NMat=1 NMatS=1 NMatT=0.
 Defaulting to unpruned grid for atomic number  78.
 Defaulting to unpruned grid for atomic number  78.
 Defaulting to unpruned grid for atomic number  78.
 Defaulting to unpruned grid for atomic number  78.
 Defaulting to unpruned grid for atomic number  78.
 Defaulting to unpruned grid for atomic number  78.
 Defaulting to unpruned grid for atomic number  78.
 Defaulting to unpruned grid for atomic number  78.
 ***** Axes restored to original set *****
 -------------------------------------------------------------------
 Center     Atomic                   Forces (Hartrees/Bohr)
 Number     Number              X              Y              Z
 -------------------------------------------------------------------
      1       78          -0.006565859   -0.025735588   -0.021642826
      2       17          -0.013163117    0.048159815    0.001984244
      3       17          -0.040944645    0.002127421    0.002638916
      4       35          -0.000826980   -0.034008502   -0.001086177
      5        7           0.097864378    0.100972971    0.143248560
      6        8          -0.017773506    0.004527454   -0.099532728
      7        8          -0.012443820   -0.099293743   -0.027985135
      8       17           0.000010226    0.000384958   -0.042642670
      9       17          -0.006156677    0.002865215    0.045017816
 -------------------------------------------------------------------
 Cartesian Forces:  Max     0.143248560 RMS     0.051547039

 GradGradGradGradGradGradGradGradGradGradGradGradGradGradGradGradGradGrad
 Berny optimization.
 FormGI is forming the generalized inverse of G from B-inverse, IUseBI=4.
 Internal  Forces:  Max     0.094773706 RMS     0.033262942
 Search for a local minimum.
 Step number   1 out of a maximum of   47
 All quantities printed in internal units (Hartrees-Bohrs-Radians)
 Mixed Optimization -- RFO/linear search
 Second derivative matrix not updated -- first step.
 ITU=  0
     Eigenvalues ---    0.00230   0.04734   0.08487   0.08487   0.12615
     Eigenvalues ---    0.12615   0.12615   0.12615   0.16743   0.19509
     Eigenvalues ---    0.20378   0.22001   0.22001   0.22001   0.22001
     Eigenvalues ---    0.25000   0.25000   0.25000   0.25000   0.52948
     Eigenvalues ---    0.52948
 RFO step:  Lambda=-1.14883401D-01 EMin= 2.30000000D-03
 Linear search not attempted -- first point.
 Maximum step size (   0.300) exceeded in Quadratic search.
    -- Step size scaled by   0.602
 Iteration  1 RMS(Cart)=  0.10207420 RMS(Int)=  0.00640178
 Iteration  2 RMS(Cart)=  0.00555584 RMS(Int)=  0.00322747
 Iteration  3 RMS(Cart)=  0.00005998 RMS(Int)=  0.00322719
 Iteration  4 RMS(Cart)=  0.00000070 RMS(Int)=  0.00322719
 Variable       Old X    -DE/DX   Delta X   Delta X   Delta X     New X
                                 (Linear)    (Quad)   (Total)
    R1        4.30858   0.04814   0.00000   0.08660   0.08660   4.39518
    R2        4.30858   0.04095   0.00000   0.07366   0.07366   4.38224
    R3        4.59203   0.03403   0.00000   0.06614   0.06614   4.65817
    R4        3.76056   0.06765   0.00000   0.12789   0.12789   3.88845
    R5        4.30858   0.04263   0.00000   0.07669   0.07669   4.38526
    R6        4.30858   0.04503   0.00000   0.08101   0.08101   4.38959
    R7        2.57003  -0.09312   0.00000  -0.08706  -0.08706   2.48296
    R8        2.57003  -0.09477   0.00000  -0.08861  -0.08861   2.48142
    A1        1.57080  -0.01645   0.00000  -0.02976  -0.02976   1.54104
    A2        1.57080   0.02543   0.00000   0.05221   0.05221   1.62300
    A3        1.57080   0.00117   0.00000   0.00176   0.00183   1.57263
    A4        1.57080  -0.00348   0.00000  -0.00871  -0.00917   1.56162
    A5        1.57080   0.00133   0.00000  -0.00803  -0.00803   1.56277
    A6        1.57080   0.00287   0.00000   0.00162   0.00156   1.57236
    A7        1.57080  -0.00949   0.00000  -0.01817  -0.01817   1.55263
    A8        1.57080  -0.01031   0.00000  -0.01442  -0.01442   1.55638
    A9        1.57080  -0.00055   0.00000   0.00012   0.00001   1.57081
   A10        1.57080   0.00285   0.00000   0.00683   0.00671   1.57750
   A11        1.57080  -0.00358   0.00000  -0.00341  -0.00333   1.56747
   A12        1.57080   0.01021   0.00000   0.01997   0.02009   1.59088
   A13        1.91063   0.03427   0.00000   0.08285   0.07381   1.98445
   A14        1.91063   0.05009   0.00000   0.10897   0.10006   2.01070
   A15        1.91063  -0.00399   0.00000   0.04594   0.03246   1.94309
   A16        3.14159  -0.01512   0.00000  -0.03779  -0.03779   3.10381
   A17        3.14159   0.00898   0.00000   0.02245   0.02245   3.16404
   A18        3.14159  -0.00230   0.00000  -0.00695  -0.00734   3.13425
   A19        3.14159   0.00063   0.00000   0.00189   0.00178   3.14338
   A20        3.14159   0.00072   0.00000   0.00179   0.00173   3.14332
   A21        3.14159  -0.00662   0.00000  -0.01655  -0.01639   3.12520
    D1        1.99862   0.02196   0.00000   0.08321   0.08571   2.08433
    D2       -0.09578  -0.02482   0.00000  -0.09052  -0.09260  -0.18837
    D3       -1.14297   0.02258   0.00000   0.08509   0.08743  -1.05555
    D4        3.04582  -0.02419   0.00000  -0.08863  -0.09088   2.95494
    D5       -2.71377   0.02313   0.00000   0.08497   0.08737  -2.62640
    D6        1.47502  -0.02364   0.00000  -0.08876  -0.09094   1.38409
    D7        0.42782   0.02544   0.00000   0.09192   0.09384   0.52167
    D8       -1.66657  -0.02134   0.00000  -0.08180  -0.08446  -1.75103
         Item               Value     Threshold  Converged?
 Maximum Force            0.094774     0.000450     NO 
 RMS     Force            0.033263     0.000300     NO 
 Maximum Displacement     0.290402     0.001800     NO 
 RMS     Displacement     0.099849     0.001200     NO 
 Predicted change in Energy=-5.723361D-02
 GradGradGradGradGradGradGradGradGradGradGradGradGradGradGradGradGradGrad

                          Input orientation:                          
 ---------------------------------------------------------------------
 Center     Atomic      Atomic             Coordinates (Angstroms)
 Number     Number       Type             X           Y           Z
 ---------------------------------------------------------------------
      1         78           0       -0.342846    0.360884    0.017025
      2         17           0       -0.462658    2.683619    0.021265
      3         17           0       -2.661024    0.310459   -0.017174
      4         35           0       -0.309007   -2.103883    0.015553
      5          7           0        1.714658    0.359446    0.043704
      6          8           0        2.228770   -0.234569    1.096909
      7          8           0        2.277458    1.526683   -0.168586
      8         17           0       -0.305028    0.362815   -2.303248
      9         17           0       -0.419596    0.374020    2.338589
 ---------------------------------------------------------------------
                    Distance matrix (angstroms):
                    1          2          3          4          5
     1  Pt   0.000000
     2  Cl   2.325828   0.000000
     3  Cl   2.318979   3.235148   0.000000
     4  Br   2.464999   4.789971   3.370772   0.000000
     5  N    2.057677   3.184806   4.376380   3.188103   0.000000
     6  O    2.852003   4.112982   5.044634   3.332263   1.313928
     7  O    2.873940   2.980400   5.088294   4.461470   1.313109
     8  Cl   2.320582   3.288516   3.283229   3.385477   3.096340
     9  Cl   2.322870   3.272017   3.252332   3.398342   3.133967
                    6          7          8          9
     6  O    0.000000
     7  O    2.169299   0.000000
     8  Cl   4.282297   3.546915   0.000000
     9  Cl   2.987640   3.858583   4.643264   0.000000
 Stoichiometry    BrCl4NO2Pt(2-)
 Framework group  C1[X(BrCl4NO2Pt)]
 Deg. of freedom    21
 Full point group                 C1      NOp   1
 Largest Abelian subgroup         C1      NOp   1
 Largest concise Abelian subgroup C1      NOp   1
                         Standard orientation:                         
 ---------------------------------------------------------------------
 Center     Atomic      Atomic             Coordinates (Angstroms)
 Number     Number       Type             X           Y           Z
 ---------------------------------------------------------------------
      1         78           0       -0.201162   -0.100369    0.008099
      2         17           0       -2.495046   -0.432288    0.201487
      3         17           0        0.107512   -2.261777    0.789572
      4         35           0        2.243507    0.166235   -0.161421
      5          7           0       -0.429331    1.821098   -0.691858
      6          8           0        0.129776    2.731629    0.072823
      7          8           0       -1.657201    2.156637   -1.014353
      8         17           0       -0.265810   -0.893817   -2.171662
      9         17           0       -0.147092    0.655925    2.203736
 ---------------------------------------------------------------------
 Rotational constants (GHZ):      0.5905518      0.4783944      0.4410912
 Basis read from rwf:  (5D, 7F)
 Pseudo-potential data read from rwf file.
 There are   180 symmetry adapted cartesian basis functions of A   symmetry.
 There are   168 symmetry adapted basis functions of A   symmetry.
   168 basis functions,   346 primitive gaussians,   180 cartesian basis functions
    73 alpha electrons       73 beta electrons
       nuclear repulsion energy      1515.2336393322 Hartrees.
 NAtoms=    9 NActive=    9 NUniq=    9 SFac= 1.00D+00 NAtFMM=   60 NAOKFM=F Big=F
 Integral buffers will be    131072 words long.
 Raffenetti 2 integral format.
 Two-electron integral symmetry is turned on.
 ------------------------------------------------------------------------------
 Polarizable Continuum Model (PCM)
 =================================
 Model                : PCM (using non-symmetric T matrix).
 Atomic radii         : UFF (Universal Force Field).
 Polarization charges : Total charges.
 Charge compensation  : None.
 Solution method      : On-the-fly selection.
 Cavity type          : Scaled VdW (van der Waals Surface) (Alpha=1.100).
 Cavity algorithm     : GePol (No added spheres)
                        Default sphere list used, NSphG=    9.
                        Lebedev-Laikov grids with approx.  5.0 points / Ang**2.
                        Smoothing algorithm: Karplus/York (Gamma=1.0000).
                        Polarization charges: spherical gaussians, with
                                              point-specific exponents (IZeta= 3).
                        Self-potential: point-specific (ISelfS= 7).
                        Self-field    : sphere-specific E.n sum rule (ISelfD= 2).
 1st derivatives      : Analytical E(r).r(x)/FMM algorithm (CHGder, D1EAlg=3).
                        Cavity 1st derivative terms included.
 Solvent              : Water, Eps=  78.355300 Eps(inf)=   1.777849
 ------------------------------------------------------------------------------
 Spheres list:
 ISph  on   Nord     Re0    Alpha      Xe            Ye            Ze
    1  Pt      1    1.3770  1.100     -0.201162     -0.100369      0.008099
    2  Cl      2    1.9735  1.100     -2.495046     -0.432288      0.201487
    3  Cl      3    1.9735  1.100      0.107512     -2.261777      0.789572
    4  Br      4    2.0945  1.100      2.243507      0.166235     -0.161421
    5   N      5    1.8300  1.100     -0.429331      1.821098     -0.691858
    6   O      6    1.7500  1.100      0.129776      2.731629      0.072823
    7   O      7    1.7500  1.100     -1.657201      2.156637     -1.014353
    8  Cl      8    1.9735  1.100     -0.265810     -0.893817     -2.171662
    9  Cl      9    1.9735  1.100     -0.147092      0.655925      2.203736
 ------------------------------------------------------------------------------
 One-electron integrals computed using PRISM.
   1 Symmetry operations used in ECPInt.
 ECPInt:  NShTT=    2485 NPrTT=   12117 LenC2=    2320 LenP2D=    8013.
 LDataN:  DoStor=T MaxTD1= 6 Len=  172
 NBasis=   168 RedAO= T EigKep=  5.94D-03  NBF=   168
 NBsUse=   168 1.00D-06 EigRej= -1.00D+00 NBFU=   168
 Defaulting to unpruned grid for atomic number  78.
 Initial guess from the checkpoint file:  "/home/scr/diego/Gau-10587.chk"
 B after Tr=     0.000000    0.000000    0.000000
         Rot=    0.994742   -0.097841    0.005084    0.029835 Ang= -11.76 deg.
 ExpMin= 2.90D-02 ExpMax= 1.13D+05 ExpMxC= 1.70D+04 IAcc=3 IRadAn=         5 AccDes= 0.00D+00
 Harris functional with IExCor=  402 and IRadAn=       5 diagonalized for initial guess.
 HarFok:  IExCor=  402 AccDes= 0.00D+00 IRadAn=         5 IDoV= 1 UseB2=F ITyADJ=14
 ICtDFT=  3500011 ScaDFX=  1.000000  1.000000  1.000000  1.000000
 Defaulting to unpruned grid for atomic number  78.
 Defaulting to unpruned grid for atomic number  78.
 Defaulting to unpruned grid for atomic number  78.
 Defaulting to unpruned grid for atomic number  78.
 Defaulting to unpruned grid for atomic number  78.
 Defaulting to unpruned grid for atomic number  78.
 Defaulting to unpruned grid for atomic number  78.
 Defaulting to unpruned grid for atomic number  78.
 FoFCou: FMM=F IPFlag=           0 FMFlag=      100000 FMFlg1=           0
         NFxFlg=           0 DoJE=T BraDBF=F KetDBF=T FulRan=T
         wScrn=  0.000000 ICntrl=     500 IOpCl=  0 I1Cent=   200000004 NGrid=           0
         NMat0=    1 NMatS0=      1 NMatT0=    0 NMatD0=    1 NMtDS0=    0 NMtDT0=    0
 Petite list used in FoFCou.
 Keep R1 ints in memory in canonical form, NReq=106135690.
 Requested convergence on RMS density matrix=1.00D-08 within 128 cycles.
 Requested convergence on MAX density matrix=1.00D-06.
 Requested convergence on             energy=1.00D-06.
 No special actions if energy rises.
 Defaulting to unpruned grid for atomic number  78.
 Defaulting to unpruned grid for atomic number  78.
 Defaulting to unpruned grid for atomic number  78.
 Defaulting to unpruned grid for atomic number  78.
 Defaulting to unpruned grid for atomic number  78.
 Defaulting to unpruned grid for atomic number  78.
 Defaulting to unpruned grid for atomic number  78.
 Defaulting to unpruned grid for atomic number  78.
 Inv3:  Mode=1 IEnd=     5804643.
 Iteration    1 A*A^-1 deviation from unit magnitude is 5.66D-15 for     83.
 Iteration    1 A*A^-1 deviation from orthogonality  is 4.62D-15 for    787    559.
 Iteration    1 A^-1*A deviation from unit magnitude is 6.22D-15 for   1104.
 Iteration    1 A^-1*A deviation from orthogonality  is 3.92D-15 for    719    322.
 Error on total polarization charges =  0.01420
 SCF Done:  E(RB3LYP) =  -4738.66877726     A.U. after   14 cycles
            NFock= 14  Conv=0.37D-08     -V/T= 2.0194
   1 Symmetry operations used in ECPInt.
 ECPInt:  NShTT=    2485 NPrTT=   12117 LenC2=    2320 LenP2D=    8013.
 LDataN:  DoStor=T MaxTD1= 7 Len=  274
 D1PCM: PCM CHGder 1st derivatives, ID1Alg=3 FixD1E=F DoIter=F DoCFld=F I1PDM=0.
 Calling FoFJK, ICntrl=      2127 FMM=F ISym2X=0 I1Cent= 0 IOpClX= 0 NMat=1 NMatS=1 NMatT=0.
 Defaulting to unpruned grid for atomic number  78.
 Defaulting to unpruned grid for atomic number  78.
 Defaulting to unpruned grid for atomic number  78.
 Defaulting to unpruned grid for atomic number  78.
 Defaulting to unpruned grid for atomic number  78.
 Defaulting to unpruned grid for atomic number  78.
 Defaulting to unpruned grid for atomic number  78.
 Defaulting to unpruned grid for atomic number  78.
 ***** Axes restored to original set *****
 -------------------------------------------------------------------
 Center     Atomic                   Forces (Hartrees/Bohr)
 Number     Number              X              Y              Z
 -------------------------------------------------------------------
      1       78           0.002059369   -0.018637649   -0.016777963
      2       17          -0.002206576    0.028099109    0.000837443
      3       17          -0.026097629    0.000887045    0.001190501
      4       35           0.000258932   -0.022226741   -0.000142534
      5        7           0.088204584    0.082255510    0.118512589
      6        8          -0.029705230    0.002299665   -0.078931498
      7        8          -0.032293492   -0.073763642   -0.024528220
      8       17           0.001029597    0.000161094   -0.027096451
      9       17          -0.001249556    0.000925610    0.026936134
 -------------------------------------------------------------------
 Cartesian Forces:  Max     0.118512589 RMS     0.041661607

 GradGradGradGradGradGradGradGradGradGradGradGradGradGradGradGradGradGrad
 Berny optimization.
 Using GEDIIS/GDIIS optimizer.
 FormGI is forming the generalized inverse of G from B-inverse, IUseBI=4.
 Internal  Forces:  Max     0.075878430 RMS     0.022476018
 Search for a local minimum.
 Step number   2 out of a maximum of   47
 All quantities printed in internal units (Hartrees-Bohrs-Radians)
 Mixed Optimization -- RFO/linear search
 Update second derivatives using D2CorX and points    1    2
 DE= -5.50D-02 DEPred=-5.72D-02 R= 9.61D-01
 TightC=F SS=  1.41D+00  RLast= 3.86D-01 DXNew= 5.0454D-01 1.1570D+00
 Trust test= 9.61D-01 RLast= 3.86D-01 DXMaxT set to 5.05D-01
 ITU=  1  0
 Use linear search instead of GDIIS.
 Linear search step of   0.586 exceeds DXMaxT=   0.505 but not scaled.
 Quartic linear search produced a step of  2.00000.
 Iteration  1 RMS(Cart)=  0.17114281 RMS(Int)=  0.02752431
 Iteration  2 RMS(Cart)=  0.01592162 RMS(Int)=  0.01602444
 Iteration  3 RMS(Cart)=  0.00050893 RMS(Int)=  0.01601889
 Iteration  4 RMS(Cart)=  0.00001166 RMS(Int)=  0.01601888
 Iteration  5 RMS(Cart)=  0.00000038 RMS(Int)=  0.01601888
 Variable       Old X    -DE/DX   Delta X   Delta X   Delta X     New X
                                 (Linear)    (Quad)   (Total)
    R1        4.39518   0.02818   0.17320   0.00000   0.17320   4.56838
    R2        4.38224   0.02605   0.14732   0.00000   0.14732   4.52955
    R3        4.65817   0.02223   0.13228   0.00000   0.13228   4.79045
    R4        3.88845   0.02637   0.25578   0.00000   0.25578   4.14423
    R5        4.38526   0.02713   0.15338   0.00000   0.15338   4.53864
    R6        4.38959   0.02695   0.16202   0.00000   0.16202   4.55161
    R7        2.48296  -0.07588  -0.17413   0.00000  -0.17413   2.30884
    R8        2.48142  -0.07546  -0.17722   0.00000  -0.17722   2.30419
    A1        1.54104  -0.00240  -0.05952   0.00000  -0.05945   1.48159
    A2        1.62300  -0.00009   0.10441   0.00000   0.10428   1.72728
    A3        1.57263   0.00049   0.00366   0.00000   0.00404   1.57667
    A4        1.56162  -0.00115  -0.01834   0.00000  -0.02102   1.54061
    A5        1.56277   0.00153  -0.01606   0.00000  -0.01604   1.54672
    A6        1.57236   0.00235   0.00313   0.00000   0.00280   1.57516
    A7        1.55263  -0.00208  -0.03634   0.00000  -0.03622   1.51641
    A8        1.55638   0.00095  -0.02884   0.00000  -0.02877   1.52761
    A9        1.57081  -0.00001   0.00002   0.00000  -0.00065   1.57015
   A10        1.57750   0.00066   0.01341   0.00000   0.01268   1.59018
   A11        1.56747  -0.00035  -0.00666   0.00000  -0.00615   1.56131
   A12        1.59088   0.00008   0.04017   0.00000   0.04065   1.63153
   A13        1.98445   0.00865   0.14763   0.00000   0.09400   2.07845
   A14        2.01070   0.00813   0.20013   0.00000   0.14712   2.15781
   A15        1.94309   0.01398   0.06492   0.00000   0.00551   1.94860
   A16        3.10381  -0.00086  -0.07557   0.00000  -0.07549   3.02832
   A17        3.16404  -0.00249   0.04490   0.00000   0.04484   3.20888
   A18        3.13425  -0.00066  -0.01468   0.00000  -0.01698   3.11727
   A19        3.14338   0.00039   0.00357   0.00000   0.00297   3.14635
   A20        3.14332  -0.00201   0.00346   0.00000   0.00309   3.14641
   A21        3.12520   0.00030  -0.03279   0.00000  -0.03167   3.09352
    D1        2.08433   0.01797   0.17141   0.00000   0.17821   2.26254
    D2       -0.18837  -0.01907  -0.18519   0.00000  -0.18956  -0.37793
    D3       -1.05555   0.01844   0.17485   0.00000   0.18071  -0.87484
    D4        2.95494  -0.01860  -0.18175   0.00000  -0.18707   2.76788
    D5       -2.62640   0.01845   0.17473   0.00000   0.18100  -2.44540
    D6        1.38409  -0.01860  -0.18187   0.00000  -0.18677   1.19731
    D7        0.52167   0.01912   0.18768   0.00000   0.19110   0.71276
    D8       -1.75103  -0.01792  -0.16892   0.00000  -0.17668  -1.92771
         Item               Value     Threshold  Converged?
 Maximum Force            0.075878     0.000450     NO 
 RMS     Force            0.022476     0.000300     NO 
 Maximum Displacement     0.505337     0.001800     NO 
 RMS     Displacement     0.176063     0.001200     NO 
 Predicted change in Energy=-3.262707D-02
 GradGradGradGradGradGradGradGradGradGradGradGradGradGradGradGradGradGrad

                          Input orientation:                          
 ---------------------------------------------------------------------
 Center     Atomic      Atomic             Coordinates (Angstroms)
 Number     Number       Type             X           Y           Z
 ---------------------------------------------------------------------
      1         78           0       -0.369866    0.409085    0.048585
      2         17           0       -0.730071    2.799578    0.053367
      3         17           0       -2.760872    0.264920   -0.038696
      4         35           0       -0.278159   -2.124251    0.045116
      5          7           0        1.822041    0.393586    0.117054
      6          8           0        2.385296   -0.297168    0.952734
      7          8           0        2.515238    1.334845   -0.229738
      8         17           0       -0.272073    0.414366   -2.351162
      9         17           0       -0.590808    0.444514    2.446777
 ---------------------------------------------------------------------
                    Distance matrix (angstroms):
                    1          2          3          4          5
     1  Pt   0.000000
     2  Cl   2.417484   0.000000
     3  Cl   2.396937   3.249172   0.000000
     4  Br   2.534997   4.944530   3.446595   0.000000
     5  N    2.193031   3.508009   4.587363   3.279560   0.000000
     6  O    2.984493   4.483771   5.270855   3.354996   1.221784
     7  O    3.042749   3.571781   5.386888   4.454655   1.219326
     8  Cl   2.401745   3.417713   3.400581   3.490954   3.236949
     9  Cl   2.408609   3.360674   3.304392   3.530478   3.354406
                    6          7          8          9
     6  O    0.000000
     7  O    2.019552   0.000000
     8  Cl   4.299259   3.621716   0.000000
     9  Cl   3.411664   4.195705   4.808609   0.000000
 Stoichiometry    BrCl4NO2Pt(2-)
 Framework group  C1[X(BrCl4NO2Pt)]
 Deg. of freedom    21
 Full point group                 C1      NOp   1
 Largest Abelian subgroup         C1      NOp   1
 Largest concise Abelian subgroup C1      NOp   1
                         Standard orientation:                         
 ---------------------------------------------------------------------
 Center     Atomic      Atomic             Coordinates (Angstroms)
 Number     Number       Type             X           Y           Z
 ---------------------------------------------------------------------
      1         78           0       -0.244000   -0.041868   -0.006321
      2         17           0       -2.658837   -0.080437    0.099998
      3         17           0       -0.415456   -2.430802    0.088046
      4         35           0        2.277509   -0.287556   -0.094865
      5          7           0        0.058992    2.127709   -0.108878
      6          8           0        0.850542    2.653816    0.658857
      7          8           0       -0.797538    2.912477   -0.479351
      8         17           0       -0.334259   -0.119626   -2.405109
      9         17           0       -0.210140   -0.080552    2.401739
 ---------------------------------------------------------------------
 Rotational constants (GHZ):      0.5364572      0.4522233      0.4117446
 Basis read from rwf:  (5D, 7F)
 Pseudo-potential data read from rwf file.
 There are   180 symmetry adapted cartesian basis functions of A   symmetry.
 There are   168 symmetry adapted basis functions of A   symmetry.
   168 basis functions,   346 primitive gaussians,   180 cartesian basis functions
    73 alpha electrons       73 beta electrons
       nuclear repulsion energy      1466.7317294600 Hartrees.
 NAtoms=    9 NActive=    9 NUniq=    9 SFac= 1.00D+00 NAtFMM=   60 NAOKFM=F Big=F
 Integral buffers will be    131072 words long.
 Raffenetti 2 integral format.
 Two-electron integral symmetry is turned on.
 ------------------------------------------------------------------------------
 Polarizable Continuum Model (PCM)
 =================================
 Model                : PCM (using non-symmetric T matrix).
 Atomic radii         : UFF (Universal Force Field).
 Polarization charges : Total charges.
 Charge compensation  : None.
 Solution method      : On-the-fly selection.
 Cavity type          : Scaled VdW (van der Waals Surface) (Alpha=1.100).
 Cavity algorithm     : GePol (No added spheres)
                        Default sphere list used, NSphG=    9.
                        Lebedev-Laikov grids with approx.  5.0 points / Ang**2.
                        Smoothing algorithm: Karplus/York (Gamma=1.0000).
                        Polarization charges: spherical gaussians, with
                                              point-specific exponents (IZeta= 3).
                        Self-potential: point-specific (ISelfS= 7).
                        Self-field    : sphere-specific E.n sum rule (ISelfD= 2).
 1st derivatives      : Analytical E(r).r(x)/FMM algorithm (CHGder, D1EAlg=3).
                        Cavity 1st derivative terms included.
 Solvent              : Water, Eps=  78.355300 Eps(inf)=   1.777849
 ------------------------------------------------------------------------------
 Spheres list:
 ISph  on   Nord     Re0    Alpha      Xe            Ye            Ze
    1  Pt      1    1.3770  1.100     -0.244000     -0.041868     -0.006321
    2  Cl      2    1.9735  1.100     -2.658837     -0.080437      0.099998
    3  Cl      3    1.9735  1.100     -0.415456     -2.430802      0.088046
    4  Br      4    2.0945  1.100      2.277509     -0.287556     -0.094865
    5   N      5    1.8300  1.100      0.058992      2.127709     -0.108878
    6   O      6    1.7500  1.100      0.850542      2.653816      0.658857
    7   O      7    1.7500  1.100     -0.797538      2.912477     -0.479351
    8  Cl      8    1.9735  1.100     -0.334259     -0.119626     -2.405109
    9  Cl      9    1.9735  1.100     -0.210140     -0.080552      2.401739
 ------------------------------------------------------------------------------
 One-electron integrals computed using PRISM.
   1 Symmetry operations used in ECPInt.
 ECPInt:  NShTT=    2485 NPrTT=   12117 LenC2=    2301 LenP2D=    7919.
 LDataN:  DoStor=T MaxTD1= 6 Len=  172
 NBasis=   168 RedAO= T EigKep=  6.17D-03  NBF=   168
 NBsUse=   168 1.00D-06 EigRej= -1.00D+00 NBFU=   168
 Defaulting to unpruned grid for atomic number  78.
 Initial guess from the checkpoint file:  "/home/scr/diego/Gau-10587.chk"
 B after Tr=     0.000000    0.000000    0.000000
         Rot=    0.982875   -0.145495    0.017625    0.111706 Ang= -21.24 deg.
 ExpMin= 2.90D-02 ExpMax= 1.13D+05 ExpMxC= 1.70D+04 IAcc=3 IRadAn=         5 AccDes= 0.00D+00
 Harris functional with IExCor=  402 and IRadAn=       5 diagonalized for initial guess.
 HarFok:  IExCor=  402 AccDes= 0.00D+00 IRadAn=         5 IDoV= 1 UseB2=F ITyADJ=14
 ICtDFT=  3500011 ScaDFX=  1.000000  1.000000  1.000000  1.000000
 Defaulting to unpruned grid for atomic number  78.
 Defaulting to unpruned grid for atomic number  78.
 Defaulting to unpruned grid for atomic number  78.
 Defaulting to unpruned grid for atomic number  78.
 Defaulting to unpruned grid for atomic number  78.
 Defaulting to unpruned grid for atomic number  78.
 Defaulting to unpruned grid for atomic number  78.
 Defaulting to unpruned grid for atomic number  78.
 FoFCou: FMM=F IPFlag=           0 FMFlag=      100000 FMFlg1=           0
         NFxFlg=           0 DoJE=T BraDBF=F KetDBF=T FulRan=T
         wScrn=  0.000000 ICntrl=     500 IOpCl=  0 I1Cent=   200000004 NGrid=           0
         NMat0=    1 NMatS0=      1 NMatT0=    0 NMatD0=    1 NMtDS0=    0 NMtDT0=    0
 Petite list used in FoFCou.
 Keep R1 ints in memory in canonical form, NReq=106339524.
 Requested convergence on RMS density matrix=1.00D-08 within 128 cycles.
 Requested convergence on MAX density matrix=1.00D-06.
 Requested convergence on             energy=1.00D-06.
 No special actions if energy rises.
 Defaulting to unpruned grid for atomic number  78.
 Defaulting to unpruned grid for atomic number  78.
 Defaulting to unpruned grid for atomic number  78.
 Defaulting to unpruned grid for atomic number  78.
 Defaulting to unpruned grid for atomic number  78.
 Defaulting to unpruned grid for atomic number  78.
 Defaulting to unpruned grid for atomic number  78.
 Defaulting to unpruned grid for atomic number  78.
 Inv3:  Mode=1 IEnd=     6394800.
 Iteration    1 A*A^-1 deviation from unit magnitude is 6.44D-15 for   1410.
 Iteration    1 A*A^-1 deviation from orthogonality  is 5.06D-15 for   1216   1034.
 Iteration    1 A^-1*A deviation from unit magnitude is 5.77D-15 for   1046.
 Iteration    1 A^-1*A deviation from orthogonality  is 2.93D-15 for    642    358.
 Error on total polarization charges =  0.01349
 SCF Done:  E(RB3LYP) =  -4738.70684364     A.U. after   16 cycles
            NFock= 16  Conv=0.17D-08     -V/T= 2.0194
   1 Symmetry operations used in ECPInt.
 ECPInt:  NShTT=    2485 NPrTT=   12117 LenC2=    2301 LenP2D=    7919.
 LDataN:  DoStor=T MaxTD1= 7 Len=  274
 D1PCM: PCM CHGder 1st derivatives, ID1Alg=3 FixD1E=F DoIter=F DoCFld=F I1PDM=0.
 Calling FoFJK, ICntrl=      2127 FMM=F ISym2X=0 I1Cent= 0 IOpClX= 0 NMat=1 NMatS=1 NMatT=0.
 Defaulting to unpruned grid for atomic number  78.
 Defaulting to unpruned grid for atomic number  78.
 Defaulting to unpruned grid for atomic number  78.
 Defaulting to unpruned grid for atomic number  78.
 Defaulting to unpruned grid for atomic number  78.
 Defaulting to unpruned grid for atomic number  78.
 Defaulting to unpruned grid for atomic number  78.
 Defaulting to unpruned grid for atomic number  78.
 ***** Axes restored to original set *****
 -------------------------------------------------------------------
 Center     Atomic                   Forces (Hartrees/Bohr)
 Number     Number              X              Y              Z
 -------------------------------------------------------------------
      1       78           0.003905101   -0.009168073   -0.008588090
      2       17           0.008063447    0.003671992    0.000074270
      3       17          -0.007169551   -0.000340666   -0.000524166
      4       35           0.001917340   -0.003495969   -0.000476765
      5        7           0.035599175    0.030052405    0.053792487
      6        8          -0.026988470   -0.051627861    0.008329949
      7        8          -0.022895942    0.030935989   -0.052027217
      8       17           0.002411928    0.000438471   -0.002518680
      9       17           0.005156973   -0.000466289    0.001938212
 -------------------------------------------------------------------
 Cartesian Forces:  Max     0.053792487 RMS     0.022008231

 GradGradGradGradGradGradGradGradGradGradGradGradGradGradGradGradGradGrad
 Berny optimization.
 Using GEDIIS/GDIIS optimizer.
 FormGI is forming the generalized inverse of G from B-inverse, IUseBI=4.
 Internal  Forces:  Max     0.073858389 RMS     0.017513618
 Search for a local minimum.
 Step number   3 out of a maximum of   47
 All quantities printed in internal units (Hartrees-Bohrs-Radians)
 Mixed Optimization -- RFO/linear search
 Update second derivatives using D2CorX and points    2    3
 ITU=  0  1  0
 Use linear search instead of GDIIS.
     Eigenvalues ---    0.00230   0.01358   0.08363   0.08397   0.12310
     Eigenvalues ---    0.12404   0.12617   0.12832   0.14552   0.16762
     Eigenvalues ---    0.19649   0.21054   0.22001   0.22001   0.22008
     Eigenvalues ---    0.24784   0.24998   0.25000   0.30848   0.52946
     Eigenvalues ---    0.59234
 RFO step:  Lambda=-4.60367775D-02 EMin= 2.29975921D-03
 Quartic linear search produced a step of -0.08292.
 Iteration  1 RMS(Cart)=  0.08475234 RMS(Int)=  0.01508266
 Iteration  2 RMS(Cart)=  0.01510109 RMS(Int)=  0.00368244
 Iteration  3 RMS(Cart)=  0.00024301 RMS(Int)=  0.00367511
 Iteration  4 RMS(Cart)=  0.00000005 RMS(Int)=  0.00367511
 Variable       Old X    -DE/DX   Delta X   Delta X   Delta X     New X
                                 (Linear)    (Quad)   (Total)
    R1        4.56838   0.00241  -0.01436   0.01906   0.00470   4.57308
    R2        4.52955   0.00719  -0.01222   0.03341   0.02120   4.55075
    R3        4.79045   0.00358  -0.01097   0.02374   0.01277   4.80322
    R4        4.14423  -0.01404  -0.02121  -0.03977  -0.06098   4.08325
    R5        4.53864   0.00262  -0.01272   0.02046   0.00774   4.54638
    R6        4.55161   0.00144  -0.01344   0.01601   0.00258   4.55419
    R7        2.30884   0.02244   0.01444   0.01190   0.02634   2.33518
    R8        2.30419   0.02568   0.01470   0.01679   0.03148   2.33567
    A1        1.48159   0.00961   0.00493   0.03161   0.03655   1.51814
    A2        1.72728  -0.01722  -0.00865  -0.07418  -0.08283   1.64445
    A3        1.57667  -0.00031  -0.00033  -0.00018  -0.00085   1.57581
    A4        1.54061   0.00187   0.00174   0.00620   0.00667   1.54728
    A5        1.54672   0.00225   0.00133   0.02777   0.02911   1.57583
    A6        1.57516   0.00238  -0.00023   0.01941   0.01919   1.59435
    A7        1.51641   0.00627   0.00300   0.02303   0.02601   1.54242
    A8        1.52761   0.00535   0.00239   0.01472   0.01712   1.54473
    A9        1.57015  -0.00002   0.00005   0.00017  -0.00043   1.56973
   A10        1.59018   0.00002  -0.00105   0.00153  -0.00002   1.59016
   A11        1.56131   0.00024   0.00051  -0.00412  -0.00360   1.55771
   A12        1.63153  -0.00902  -0.00337  -0.03897  -0.04244   1.58910
   A13        2.07845  -0.03175  -0.00779  -0.03798  -0.05853   2.01992
   A14        2.15781  -0.04194  -0.01220  -0.07082  -0.09577   2.06204
   A15        1.94860   0.07386  -0.00046   0.26148   0.24821   2.19681
   A16        3.02832   0.01186   0.00626   0.05939   0.06566   3.09398
   A17        3.20888  -0.00761  -0.00372  -0.04257  -0.04628   3.16259
   A18        3.11727   0.00156   0.00141   0.00601   0.00582   3.12309
   A19        3.14635  -0.00056  -0.00025  -0.00198  -0.00192   3.14443
   A20        3.14641  -0.00259  -0.00026  -0.01515  -0.01539   3.13102
   A21        3.09352   0.00836   0.00263   0.04145   0.04420   3.13773
    D1        2.26254   0.00999  -0.01478   0.21209   0.19823   2.46077
    D2       -0.37793  -0.01069   0.01572  -0.22404  -0.20800  -0.58593
    D3       -0.87484   0.00978  -0.01498   0.21211   0.19735  -0.67749
    D4        2.76788  -0.01090   0.01551  -0.22402  -0.20888   2.55900
    D5       -2.44540   0.00987  -0.01501   0.21191   0.19784  -2.24756
    D6        1.19731  -0.01081   0.01549  -0.22422  -0.20839   0.98893
    D7        0.71276   0.01050  -0.01585   0.21618   0.19944   0.91220
    D8       -1.92771  -0.01018   0.01465  -0.21996  -0.20679  -2.13450
         Item               Value     Threshold  Converged?
 Maximum Force            0.073858     0.000450     NO 
 RMS     Force            0.017514     0.000300     NO 
 Maximum Displacement     0.261957     0.001800     NO 
 RMS     Displacement     0.094874     0.001200     NO 
 Predicted change in Energy=-3.464277D-02
 GradGradGradGradGradGradGradGradGradGradGradGradGradGradGradGradGradGrad

                          Input orientation:                          
 ---------------------------------------------------------------------
 Center     Atomic      Atomic             Coordinates (Angstroms)
 Number     Number       Type             X           Y           Z
 ---------------------------------------------------------------------
      1         78           0       -0.370093    0.397252    0.065279
      2         17           0       -0.623226    2.803946    0.068035
      3         17           0       -2.771599    0.272251   -0.062582
      4         35           0       -0.225056   -2.140361    0.063138
      5          7           0        1.785276    0.463911    0.202538
      6          8           0        2.303156   -0.389560    0.930820
      7          8           0        2.376616    1.394177   -0.356553
      8         17           0       -0.186077    0.407219   -2.333495
      9         17           0       -0.568272    0.430640    2.466859
 ---------------------------------------------------------------------
                    Distance matrix (angstroms):
                    1          2          3          4          5
     1  Pt   0.000000
     2  Cl   2.419971   0.000000
     3  Cl   2.408153   3.322957   0.000000
     4  Br   2.541756   4.960316   3.510183   0.000000
     5  N    2.160764   3.360764   4.568603   3.292887   0.000000
     6  O    2.917961   4.416627   5.213251   3.195314   1.235722
     7  O    2.952324   3.341673   5.277239   4.408832   1.235986
     8  Cl   2.405843   3.420928   3.443862   3.497933   3.212618
     9  Cl   2.409974   3.374901   3.358245   3.536342   3.266105
                    6          7          8          9
     6  O    0.000000
     7  O    2.201010   0.000000
     8  Cl   4.181733   3.383753   0.000000
     9  Cl   3.358161   4.191947   4.815602   0.000000
 Stoichiometry    BrCl4NO2Pt(2-)
 Framework group  C1[X(BrCl4NO2Pt)]
 Deg. of freedom    21
 Full point group                 C1      NOp   1
 Largest Abelian subgroup         C1      NOp   1
 Largest concise Abelian subgroup C1      NOp   1
                         Standard orientation:                         
 ---------------------------------------------------------------------
 Center     Atomic      Atomic             Coordinates (Angstroms)
 Number     Number       Type             X           Y           Z
 ---------------------------------------------------------------------
      1         78           0       -0.239237   -0.064965    0.001440
      2         17           0       -2.655496   -0.071353    0.135280
      3         17           0       -0.366473   -2.466757   -0.118608
      4         35           0        2.296096   -0.179460   -0.138189
      5          7           0       -0.078597    2.086028    0.129201
      6          8           0        0.861351    2.514508    0.807368
      7          8           0       -0.972743    2.768894   -0.382519
      8         17           0       -0.360342    0.118011   -2.394376
      9         17           0       -0.162488   -0.257608    2.402475
 ---------------------------------------------------------------------
 Rotational constants (GHZ):      0.5483490      0.4476762      0.4160583
 Basis read from rwf:  (5D, 7F)
 Pseudo-potential data read from rwf file.
 There are   180 symmetry adapted cartesian basis functions of A   symmetry.
 There are   168 symmetry adapted basis functions of A   symmetry.
   168 basis functions,   346 primitive gaussians,   180 cartesian basis functions
    73 alpha electrons       73 beta electrons
       nuclear repulsion energy      1469.0169496635 Hartrees.
 NAtoms=    9 NActive=    9 NUniq=    9 SFac= 1.00D+00 NAtFMM=   60 NAOKFM=F Big=F
 Integral buffers will be    131072 words long.
 Raffenetti 2 integral format.
 Two-electron integral symmetry is turned on.
 ------------------------------------------------------------------------------
 Polarizable Continuum Model (PCM)
 =================================
 Model                : PCM (using non-symmetric T matrix).
 Atomic radii         : UFF (Universal Force Field).
 Polarization charges : Total charges.
 Charge compensation  : None.
 Solution method      : On-the-fly selection.
 Cavity type          : Scaled VdW (van der Waals Surface) (Alpha=1.100).
 Cavity algorithm     : GePol (No added spheres)
                        Default sphere list used, NSphG=    9.
                        Lebedev-Laikov grids with approx.  5.0 points / Ang**2.
                        Smoothing algorithm: Karplus/York (Gamma=1.0000).
                        Polarization charges: spherical gaussians, with
                                              point-specific exponents (IZeta= 3).
                        Self-potential: point-specific (ISelfS= 7).
                        Self-field    : sphere-specific E.n sum rule (ISelfD= 2).
 1st derivatives      : Analytical E(r).r(x)/FMM algorithm (CHGder, D1EAlg=3).
                        Cavity 1st derivative terms included.
 Solvent              : Water, Eps=  78.355300 Eps(inf)=   1.777849
 ------------------------------------------------------------------------------
 Spheres list:
 ISph  on   Nord     Re0    Alpha      Xe            Ye            Ze
    1  Pt      1    1.3770  1.100     -0.239237     -0.064965      0.001440
    2  Cl      2    1.9735  1.100     -2.655496     -0.071353      0.135280
    3  Cl      3    1.9735  1.100     -0.366473     -2.466757     -0.118608
    4  Br      4    2.0945  1.100      2.296096     -0.179460     -0.138189
    5   N      5    1.8300  1.100     -0.078597      2.086028      0.129201
    6   O      6    1.7500  1.100      0.861351      2.514508      0.807368
    7   O      7    1.7500  1.100     -0.972743      2.768894     -0.382519
    8  Cl      8    1.9735  1.100     -0.360342      0.118011     -2.394376
    9  Cl      9    1.9735  1.100     -0.162488     -0.257608      2.402475
 ------------------------------------------------------------------------------
 One-electron integrals computed using PRISM.
   1 Symmetry operations used in ECPInt.
 ECPInt:  NShTT=    2485 NPrTT=   12117 LenC2=    2304 LenP2D=    7933.
 LDataN:  DoStor=T MaxTD1= 6 Len=  172
 NBasis=   168 RedAO= T EigKep=  6.90D-03  NBF=   168
 NBsUse=   168 1.00D-06 EigRej= -1.00D+00 NBFU=   168
 Defaulting to unpruned grid for atomic number  78.
 Initial guess from the checkpoint file:  "/home/scr/diego/Gau-10587.chk"
 B after Tr=     0.000000    0.000000    0.000000
         Rot=    0.999129   -0.038693   -0.006790   -0.014070 Ang=  -4.78 deg.
 ExpMin= 2.90D-02 ExpMax= 1.13D+05 ExpMxC= 1.70D+04 IAcc=3 IRadAn=         5 AccDes= 0.00D+00
 Harris functional with IExCor=  402 and IRadAn=       5 diagonalized for initial guess.
 HarFok:  IExCor=  402 AccDes= 0.00D+00 IRadAn=         5 IDoV= 1 UseB2=F ITyADJ=14
 ICtDFT=  3500011 ScaDFX=  1.000000  1.000000  1.000000  1.000000
 Defaulting to unpruned grid for atomic number  78.
 Defaulting to unpruned grid for atomic number  78.
 Defaulting to unpruned grid for atomic number  78.
 Defaulting to unpruned grid for atomic number  78.
 Defaulting to unpruned grid for atomic number  78.
 Defaulting to unpruned grid for atomic number  78.
 Defaulting to unpruned grid for atomic number  78.
 Defaulting to unpruned grid for atomic number  78.
 FoFCou: FMM=F IPFlag=           0 FMFlag=      100000 FMFlg1=           0
         NFxFlg=           0 DoJE=T BraDBF=F KetDBF=T FulRan=T
         wScrn=  0.000000 ICntrl=     500 IOpCl=  0 I1Cent=   200000004 NGrid=           0
         NMat0=    1 NMatS0=      1 NMatT0=    0 NMatD0=    1 NMtDS0=    0 NMtDT0=    0
 Petite list used in FoFCou.
 Keep R1 ints in memory in canonical form, NReq=106300532.
 Requested convergence on RMS density matrix=1.00D-08 within 128 cycles.
 Requested convergence on MAX density matrix=1.00D-06.
 Requested convergence on             energy=1.00D-06.
 No special actions if energy rises.
 Defaulting to unpruned grid for atomic number  78.
 Defaulting to unpruned grid for atomic number  78.
 Defaulting to unpruned grid for atomic number  78.
 Defaulting to unpruned grid for atomic number  78.
 Defaulting to unpruned grid for atomic number  78.
 Defaulting to unpruned grid for atomic number  78.
 Defaulting to unpruned grid for atomic number  78.
 Defaulting to unpruned grid for atomic number  78.
 Inv3:  Mode=1 IEnd=     6281427.
 Iteration    1 A*A^-1 deviation from unit magnitude is 6.44D-15 for    955.
 Iteration    1 A*A^-1 deviation from orthogonality  is 3.33D-15 for    820    372.
 Iteration    1 A^-1*A deviation from unit magnitude is 5.77D-15 for    770.
 Iteration    1 A^-1*A deviation from orthogonality  is 1.73D-15 for   1262   1166.
 Error on total polarization charges =  0.01361
 SCF Done:  E(RB3LYP) =  -4738.72801724     A.U. after   15 cycles
            NFock= 15  Conv=0.56D-08     -V/T= 2.0194
   1 Symmetry operations used in ECPInt.
 ECPInt:  NShTT=    2485 NPrTT=   12117 LenC2=    2304 LenP2D=    7933.
 LDataN:  DoStor=T MaxTD1= 7 Len=  274
 D1PCM: PCM CHGder 1st derivatives, ID1Alg=3 FixD1E=F DoIter=F DoCFld=F I1PDM=0.
 Calling FoFJK, ICntrl=      2127 FMM=F ISym2X=0 I1Cent= 0 IOpClX= 0 NMat=1 NMatS=1 NMatT=0.
 Defaulting to unpruned grid for atomic number  78.
 Defaulting to unpruned grid for atomic number  78.
 Defaulting to unpruned grid for atomic number  78.
 Defaulting to unpruned grid for atomic number  78.
 Defaulting to unpruned grid for atomic number  78.
 Defaulting to unpruned grid for atomic number  78.
 Defaulting to unpruned grid for atomic number  78.
 Defaulting to unpruned grid for atomic number  78.
 ***** Axes restored to original set *****
 -------------------------------------------------------------------
 Center     Atomic                   Forces (Hartrees/Bohr)
 Number     Number              X              Y              Z
 -------------------------------------------------------------------
      1       78           0.011588299   -0.000372567   -0.000453118
      2       17           0.003953090    0.002209213   -0.000240550
      3       17          -0.009272003   -0.001694025   -0.001596412
      4       35          -0.000889676   -0.002649893   -0.000798124
      5        7           0.001641759    0.006532808    0.011258145
      6        8          -0.002860070    0.025813154   -0.022295151
      7        8          -0.008362467   -0.028660791    0.014335776
      8       17           0.001096057   -0.000545148   -0.001471364
      9       17           0.003105011   -0.000632753    0.001260798
 -------------------------------------------------------------------
 Cartesian Forces:  Max     0.028660791 RMS     0.010020182

 GradGradGradGradGradGradGradGradGradGradGradGradGradGradGradGradGradGrad
 Berny optimization.
 Using GEDIIS/GDIIS optimizer.
 FormGI is forming the generalized inverse of G from B-inverse, IUseBI=4.
 Internal  Forces:  Max     0.032150044 RMS     0.008894198
 Search for a local minimum.
 Step number   4 out of a maximum of   47
 All quantities printed in internal units (Hartrees-Bohrs-Radians)
 Mixed Optimization -- RFO/linear search
 Update second derivatives using D2CorX and points    3    4
 DE= -2.12D-02 DEPred=-3.46D-02 R= 6.11D-01
 TightC=F SS=  1.41D+00  RLast= 6.57D-01 DXNew= 8.4853D-01 1.9706D+00
 Trust test= 6.11D-01 RLast= 6.57D-01 DXMaxT set to 8.49D-01
 ITU=  1  0  1  0
 Use linear search instead of GDIIS.
     Eigenvalues ---    0.00230   0.01332   0.08450   0.08464   0.11695
     Eigenvalues ---    0.12444   0.12553   0.12652   0.14423   0.16765
     Eigenvalues ---    0.18892   0.19980   0.21910   0.22001   0.22011
     Eigenvalues ---    0.23448   0.24998   0.25001   0.28295   0.52941
     Eigenvalues ---    0.72503
 RFO step:  Lambda=-6.79012113D-03 EMin= 2.29864072D-03
 Quartic linear search produced a step of -0.03732.
 Iteration  1 RMS(Cart)=  0.04993195 RMS(Int)=  0.00241666
 Iteration  2 RMS(Cart)=  0.00237635 RMS(Int)=  0.00084896
 Iteration  3 RMS(Cart)=  0.00000335 RMS(Int)=  0.00084895
 Iteration  4 RMS(Cart)=  0.00000000 RMS(Int)=  0.00084895
 Variable       Old X    -DE/DX   Delta X   Delta X   Delta X     New X
                                 (Linear)    (Quad)   (Total)
    R1        4.57308   0.00179  -0.00018   0.00184   0.00167   4.57475
    R2        4.55075   0.00942  -0.00079   0.03618   0.03539   4.58614
    R3        4.80322   0.00259  -0.00048   0.00706   0.00659   4.80981
    R4        4.08325  -0.00923   0.00228  -0.05278  -0.05050   4.03275
    R5        4.54638   0.00155  -0.00029   0.00048   0.00020   4.54658
    R6        4.55419   0.00099  -0.00010  -0.00193  -0.00203   4.55216
    R7        2.33518  -0.03215  -0.00098  -0.04208  -0.04306   2.29212
    R8        2.33567  -0.03207  -0.00117  -0.04145  -0.04262   2.29305
    A1        1.51814   0.00610  -0.00136   0.02677   0.02540   1.54354
    A2        1.64445  -0.00962   0.00309  -0.05454  -0.05144   1.59302
    A3        1.57581   0.00006   0.00003   0.00060   0.00043   1.57625
    A4        1.54728   0.00123  -0.00025   0.01193   0.01112   1.55840
    A5        1.57583  -0.00265  -0.00109   0.00612   0.00503   1.58086
    A6        1.59435  -0.00014  -0.00072   0.00951   0.00873   1.60308
    A7        1.54242   0.00485  -0.00097   0.02962   0.02864   1.57106
    A8        1.54473   0.00619  -0.00064   0.02176   0.02111   1.56584
    A9        1.56973  -0.00103   0.00002  -0.01099  -0.01111   1.55862
   A10        1.59016  -0.00003   0.00000   0.00043   0.00032   1.59048
   A11        1.55771   0.00011   0.00013  -0.00948  -0.00920   1.54850
   A12        1.58910  -0.00490   0.00158  -0.03036  -0.02859   1.56050
   A13        2.01992   0.01221   0.00218   0.03506   0.03439   2.05431
   A14        2.06204   0.00316   0.00357  -0.00023   0.00049   2.06254
   A15        2.19681  -0.01502  -0.00926  -0.01961  -0.03173   2.16507
   A16        3.09398   0.00344  -0.00245   0.03289   0.03043   3.12440
   A17        3.16259  -0.00352   0.00173  -0.02777  -0.02604   3.13655
   A18        3.12309   0.00129  -0.00022   0.01253   0.01156   3.13465
   A19        3.14443  -0.00088   0.00007  -0.01008  -0.01012   3.13431
   A20        3.13102   0.00004   0.00057   0.00009   0.00060   3.13163
   A21        3.13773   0.00453  -0.00165   0.03804   0.03661   3.17434
    D1        2.46077   0.00132  -0.00740   0.03001   0.02271   2.48347
    D2       -0.58593  -0.00157   0.00776  -0.13192  -0.12399  -0.70993
    D3       -0.67749   0.00039  -0.00736   0.01958   0.01225  -0.66523
    D4        2.55900  -0.00249   0.00780  -0.14235  -0.13445   2.42455
[...]
 Frc consts  --      6.3100                17.6328                23.1450
 IR Inten    --    234.3173               816.0142               536.1843
  Atom  AN      X      Y      Z        X      Y      Z        X      Y      Z
     1  78     0.00  -0.01   0.00     0.00   0.00   0.00     0.00   0.00   0.00
     2  17     0.00   0.00   0.00     0.00   0.00   0.00     0.00   0.00   0.00
     3  17     0.00   0.02   0.00     0.00   0.01   0.00     0.00   0.00   0.00
     4  35     0.00   0.00   0.00     0.00   0.00   0.00     0.00   0.00   0.00
     5   7    -0.03   0.60  -0.01    -0.03   0.66  -0.01     0.56   0.04   0.60
     6   8     0.37  -0.19   0.38    -0.29  -0.30  -0.32    -0.23  -0.20  -0.26
     7   8    -0.34  -0.24  -0.38     0.32  -0.26   0.33    -0.26   0.16  -0.26
     8  17     0.00   0.00   0.00     0.00   0.00   0.00     0.00   0.00   0.00
     9  17     0.00   0.00   0.00     0.00   0.00   0.00     0.00   0.00   0.00

 -------------------
 - Thermochemistry -
 -------------------
 Temperature   298.150 Kelvin.  Pressure   1.00000 Atm.
 Atom     1 has atomic number 78 and mass 194.96480
 Atom     2 has atomic number 17 and mass  34.96885
 Atom     3 has atomic number 17 and mass  34.96885
 Atom     4 has atomic number 35 and mass  78.91834
 Atom     5 has atomic number  7 and mass  14.00307
 Atom     6 has atomic number  8 and mass  15.99491
 Atom     7 has atomic number  8 and mass  15.99491
 Atom     8 has atomic number 17 and mass  34.96885
 Atom     9 has atomic number 17 and mass  34.96885
 Molecular mass:   459.75145 amu.
 Principal axes and moments of inertia in atomic units:
                           1         2         3
     Eigenvalues --  3314.213664053.703614307.49476
           X            0.99988  -0.01252   0.00965
           Y            0.01253   0.99992  -0.00029
           Z           -0.00965   0.00041   0.99995
 This molecule is an asymmetric top.
 Rotational symmetry number  1.
 Warning -- assumption of classical behavior for rotation
           may cause significant error
 Rotational temperatures (Kelvin)      0.02613     0.02137     0.02011
 Rotational constants (GHZ):           0.54455     0.44521     0.41898
 Zero-point vibrational energy      45746.4 (Joules/Mol)
                                   10.93366 (Kcal/Mol)
 Warning -- explicit consideration of  18 degrees of freedom as
           vibrations may cause significant error
 Vibrational temperatures:     86.88   136.73   151.57   165.85   171.94
          (Kelvin)            183.68   191.48   204.72   210.15   216.94
                              288.29   377.39   394.54   412.46   424.36
                              434.50   487.96   880.17  1203.81  2023.95
                             2356.68
 
 Zero-point correction=                           0.017424 (Hartree/Particle)
 Thermal correction to Energy=                    0.030617
 Thermal correction to Enthalpy=                  0.031561
 Thermal correction to Gibbs Free Energy=        -0.025411
 Sum of electronic and zero-point Energies=          -4738.715187
 Sum of electronic and thermal Energies=             -4738.701994
 Sum of electronic and thermal Enthalpies=           -4738.701050
 Sum of electronic and thermal Free Energies=        -4738.758022
 
                     E (Thermal)             CV                S
                      KCal/Mol        Cal/Mol-Kelvin    Cal/Mol-Kelvin
 Total                   19.213             38.967            119.909
 Electronic               0.000              0.000              0.000
 Translational            0.889              2.981             44.265
 Rotational               0.889              2.981             32.426
 Vibrational             17.435             33.006             43.218
 Vibration     1          0.597              1.973              4.445
 Vibration     2          0.603              1.953              3.554
 Vibration     3          0.605              1.945              3.353
 Vibration     4          0.608              1.937              3.178
 Vibration     5          0.609              1.933              3.108
 Vibration     6          0.611              1.926              2.981
 Vibration     7          0.613              1.920              2.901
 Vibration     8          0.616              1.911              2.773
 Vibration     9          0.617              1.907              2.723
 Vibration    10          0.618              1.902              2.662
 Vibration    11          0.638              1.839              2.130
 Vibration    12          0.670              1.742              1.646
 Vibration    13          0.677              1.721              1.569
 Vibration    14          0.684              1.698              1.494
 Vibration    15          0.689              1.683              1.445
 Vibration    16          0.694              1.670              1.406
 Vibration    17          0.719              1.597              1.216
 Vibration    18          0.971              1.007              0.430
                       Q            Log10(Q)             Ln(Q)
 Total Bot       0.487951D+12         11.688376         26.913481
 Total V=0       0.504419D+20         19.702791         45.367354
 Vib (Bot)       0.462446D-03         -3.334939         -7.678980
 Vib (Bot)    1  0.341978D+01          0.533999          1.229577
 Vib (Bot)    2  0.216163D+01          0.334782          0.770863
 Vib (Bot)    3  0.194604D+01          0.289153          0.665799
 Vib (Bot)    4  0.177478D+01          0.249144          0.573674
 Vib (Bot)    5  0.171026D+01          0.233063          0.536647
 Vib (Bot)    6  0.159784D+01          0.203533          0.468651
 Vib (Bot)    7  0.153060D+01          0.184862          0.425661
 Vib (Bot)    8  0.142816D+01          0.154778          0.356389
 Vib (Bot)    9  0.138981D+01          0.142956          0.329168
 Vib (Bot)   10  0.134448D+01          0.128556          0.296011
 Vib (Bot)   11  0.994972D+00         -0.002189         -0.005040
 Vib (Bot)   12  0.739646D+00         -0.130976         -0.301583
 Vib (Bot)   13  0.703252D+00         -0.152889         -0.352041
 Vib (Bot)   14  0.668283D+00         -0.175040         -0.403044
 Vib (Bot)   15  0.646617D+00         -0.189353         -0.436001
 Vib (Bot)   16  0.629028D+00         -0.201330         -0.463579
 Vib (Bot)   17  0.547792D+00         -0.261384         -0.601859
 Vib (Bot)   18  0.241133D+00         -0.617743         -1.422405
 Vib (V=0)       0.478054D+05          4.679477         10.774893
 Vib (V=0)    1  0.395614D+01          0.597272          1.375269
 Vib (V=0)    2  0.271870D+01          0.434362          1.000155
 Vib (V=0)    3  0.250925D+01          0.399544          0.919984
 Vib (V=0)    4  0.234386D+01          0.369932          0.851800
 Vib (V=0)    5  0.228185D+01          0.358288          0.824988
 Vib (V=0)    6  0.217424D+01          0.337308          0.776680
 Vib (V=0)    7  0.211020D+01          0.324324          0.746783
 Vib (V=0)    8  0.201316D+01          0.303878          0.699705
 Vib (V=0)    9  0.197702D+01          0.296010          0.681589
 Vib (V=0)   10  0.193445D+01          0.286557          0.659822
 Vib (V=0)   11  0.161354D+01          0.207780          0.478430
 Vib (V=0)   12  0.139279D+01          0.143886          0.331310
 Vib (V=0)   13  0.136288D+01          0.134458          0.309600
 Vib (V=0)   14  0.133463D+01          0.125360          0.288652
 Vib (V=0)   15  0.131738D+01          0.119712          0.275647
 Vib (V=0)   16  0.130354D+01          0.115124          0.265084
 Vib (V=0)   17  0.124167D+01          0.094007          0.216458
 Vib (V=0)   18  0.105511D+01          0.023297          0.053643
 Electronic      0.100000D+01          0.000000          0.000000
 Translational   0.387472D+09          8.588240         19.775153
 Rotational      0.272317D+07          6.435075         14.817308
 ***** Axes restored to original set *****
 -------------------------------------------------------------------
 Center     Atomic                   Forces (Hartrees/Bohr)
 Number     Number              X              Y              Z
 -------------------------------------------------------------------
      1       78          -0.000072907   -0.000011467    0.000034820
      2       17          -0.000035021   -0.000002260    0.000170198
      3       17           0.000017092   -0.000051959    0.000006270
      4       35           0.000067187    0.000001433   -0.000169393
      5        7           0.000112799    0.000061701    0.000010927
      6        8           0.000000328   -0.000000406   -0.000083108
      7        8          -0.000101147    0.000053662    0.000067023
      8       17          -0.000030287    0.000173264   -0.000020288
      9       17           0.000041956   -0.000223967   -0.000016449
 -------------------------------------------------------------------
 Cartesian Forces:  Max     0.000223967 RMS     0.000085592
 FormGI is forming the generalized inverse of G from B-inverse, IUseBI=4.

 GradGradGradGradGradGradGradGradGradGradGradGradGradGradGradGradGradGrad
 Berny optimization.
 Internal  Forces:  Max     0.000079887 RMS     0.000027388
 Search for a local minimum.
 Step number   1 out of a maximum of    2
 All quantities printed in internal units (Hartrees-Bohrs-Radians)
 Second derivative matrix not updated -- analytic derivatives used.
 ITU=  0
     Eigenvalues ---    0.00297   0.04436   0.06091   0.06806   0.07262
     Eigenvalues ---    0.07431   0.08036   0.09178   0.09302   0.09525
     Eigenvalues ---    0.10106   0.10522   0.11197   0.11484   0.12782
     Eigenvalues ---    0.13218   0.14805   0.20295   0.32780   0.59498
     Eigenvalues ---    0.84977
 Angle between quadratic step and forces=  70.61 degrees.
 Linear search not attempted -- first point.
 Iteration  1 RMS(Cart)=  0.00096628 RMS(Int)=  0.00000060
 Iteration  2 RMS(Cart)=  0.00000062 RMS(Int)=  0.00000004
 Variable       Old X    -DE/DX   Delta X   Delta X   Delta X     New X
                                 (Linear)    (Quad)   (Total)
    R1        4.58280   0.00001   0.00000   0.00015   0.00015   4.58295
    R2        4.65436  -0.00001   0.00000  -0.00019  -0.00019   4.65417
    R3        4.82417   0.00000   0.00000  -0.00013  -0.00013   4.82403
    R4        3.96700   0.00002   0.00000   0.00039   0.00039   3.96739
    R5        4.56540   0.00003   0.00000   0.00030   0.00030   4.56570
    R6        4.55909  -0.00002   0.00000  -0.00026  -0.00026   4.55883
    R7        2.29600  -0.00004   0.00000  -0.00008  -0.00008   2.29593
    R8        2.29554  -0.00008   0.00000  -0.00012  -0.00012   2.29542
    A1        1.57917   0.00002   0.00000   0.00028   0.00028   1.57946
    A2        1.56287  -0.00005   0.00000  -0.00054  -0.00054   1.56233
    A3        1.58367  -0.00001   0.00000  -0.00008  -0.00008   1.58358
    A4        1.55571   0.00004   0.00000   0.00054   0.00054   1.55625
    A5        1.57413   0.00001   0.00000   0.00038   0.00038   1.57450
    A6        1.57040  -0.00002   0.00000  -0.00036  -0.00036   1.57005
    A7        1.56996   0.00003   0.00000   0.00022   0.00022   1.57018
    A8        1.56701   0.00001   0.00000  -0.00012  -0.00012   1.56689
    A9        1.55847   0.00001   0.00000   0.00015   0.00015   1.55862
   A10        1.58536  -0.00004   0.00000  -0.00060  -0.00060   1.58475
   A11        1.57695   0.00002   0.00000   0.00024   0.00024   1.57719
   A12        1.56587  -0.00002   0.00000  -0.00011  -0.00011   1.56576
   A13        2.05947   0.00002   0.00000   0.00019   0.00019   2.05966
   A14        2.05864  -0.00006   0.00000  -0.00034  -0.00034   2.05830
   A15        2.16506   0.00004   0.00000   0.00015   0.00015   2.16521
   A16        3.15330   0.00003   0.00000   0.00066   0.00066   3.15396
   A17        3.14204  -0.00002   0.00000  -0.00026  -0.00026   3.14179
   A18        3.13937   0.00002   0.00000   0.00046   0.00046   3.13983
   A19        3.14213   0.00000   0.00000   0.00006   0.00006   3.14219
   A20        3.13583   0.00001   0.00000   0.00012   0.00012   3.13594
   A21        3.14035   0.00001   0.00000  -0.00013  -0.00013   3.14021
    D1        2.26761   0.00001   0.00000  -0.00152  -0.00152   2.26608
    D2       -0.86841   0.00001   0.00000  -0.00162  -0.00162  -0.87002
    D3       -0.87352   0.00001   0.00000  -0.00147  -0.00147  -0.87499
    D4        2.27366   0.00001   0.00000  -0.00156  -0.00156   2.27210
    D5       -2.43196   0.00000   0.00000  -0.00161  -0.00161  -2.43357
    D6        0.71521  -0.00001   0.00000  -0.00170  -0.00170   0.71351
    D7        0.71186  -0.00003   0.00000  -0.00207  -0.00207   0.70979
    D8       -2.42415  -0.00003   0.00000  -0.00216  -0.00216  -2.42631
         Item               Value     Threshold  Converged?
 Maximum Force            0.000080     0.000450     YES
 RMS     Force            0.000027     0.000300     YES
 Maximum Displacement     0.002895     0.001800     NO 
 RMS     Displacement     0.000966     0.001200     YES
 Predicted change in Energy=-1.431932D-07
 GradGradGradGradGradGradGradGradGradGradGradGradGradGradGradGradGradGrad

 1\1\GINC-NEQC17\Freq\RB3LYP\Gen\Br1Cl4N1O2Pt1(2-)\DIEGO\18-Aug-2021\0\
 \#N Geom=AllCheck Guess=TCheck SCRF=Check GenChk RB3LYP/ChkBas Freq\\E
 strutura 27\\-2,1\Pt,-0.3625848636,0.3881382046,0.0719125757\Cl,-0.477
 069591,2.8097633388,0.1335495904\Cl,-2.8157757355,0.2559534753,-0.1031
 731777\Br,-0.2123944111,-2.1595402046,0.0105218326\N,1.727493705,0.499
 5055705,0.2331865356\O,2.2713177747,-0.1812660663,1.0799530191\O,2.317
 9194526,1.2453747616,-0.5222524965\Cl,-0.1936129272,0.4263259088,-2.33
 77741399\Cl,-0.534567554,0.3552190313,2.4781140007\\Version=EM64L-G09R
 evD.01\State=1-A\HF=-4738.7326108\RMSD=2.387e-09\RMSF=8.559e-05\ZeroPo
 int=0.0174239\Thermal=0.0306171\Dipole=0.576729,-0.8947494,0.0257685\D
 ipoleDeriv=1.0698376,-0.0630367,-0.0198476,-0.0134014,1.4617353,0.1144
 032,-0.0241865,0.1154642,1.287704,-0.1982188,0.0651111,-0.0210989,0.11
 33323,-1.5057028,-0.0476739,-0.0002596,-0.0513512,-0.1640018,-1.602443
 8,-0.0713395,-0.0896989,-0.0625204,-0.2550711,-0.0070957,-0.0894116,-0
 .0050193,-0.2688709,-0.1517338,0.0807918,0.0207168,0.0101048,-1.287805
 9,-0.0467376,-0.0027238,-0.0372615,-0.1236413,2.9578851,0.2983263,0.16
 61438,0.1885535,1.2518386,-0.8795421,0.1563197,-0.8743635,1.4388586,-1
 .8119316,0.1729261,-0.4699622,0.2921198,-0.6330898,0.4251826,-0.569715
 4,0.4033393,-0.8477068,-1.8707339,-0.478142,0.2666885,-0.5180138,-0.72
 58692,0.4090681,0.3569384,0.4291491,-0.7104133,-0.1939363,0.0183426,0.
 0737355,-0.007098,-0.1551549,0.0426856,0.0336849,0.0283111,-1.3195562,
 -0.1987245,-0.0229798,0.073323,-0.0030768,-0.1508804,-0.0102902,0.1393
 539,-0.0082682,-1.2923722\Polar=181.076982,0.6042741,203.4209206,0.747
 5316,-5.790115,177.3798985\PG=C01 [X(Br1Cl4N1O2Pt1)]\NImag=0\\0.208872
 19,-0.00181504,0.24669864,-0.00275210,-0.01082048,0.26848864,-0.014205
 29,0.00279251,0.00041767,0.01634373,0.00375595,-0.08194735,-0.00091833
 ,-0.00515273,0.09663833,-0.00013112,-0.00142078,-0.01699482,-0.0028001
 2,0.00156248,0.01593052,-0.06838006,-0.00235078,-0.00351702,-0.0013480
 9,-0.00189726,-0.00016944,0.08500265,-0.00223727,-0.02092619,0.0008767
 8,-0.00483424,-0.00117785,-0.00098828,0.00224159,0.01580839,-0.0032778
 3,0.00076684,-0.02127842,-0.00016501,-0.00072697,0.00106753,0.00476515
 ,0.00044768,0.01508909,-0.01281370,0.00440947,0.00004754,0.00311065,0.
 00068325,0.00002326,-0.00237445,0.00461542,-0.00066801,0.01333225,0.00
 286809,-0.06907294,-0.00040773,0.00096379,-0.01052715,-0.00054224,0.00
 222570,-0.00133593,0.00080577,-0.00274263,0.08661943,0.00068547,-0.000
 68823,-0.01480926,0.00002807,-0.00054567,0.00331776,-0.00103459,0.0009
 4254,-0.00070359,0.00162331,0.00024651,0.01586788,-0.06901654,0.000522
 19,-0.00105270,-0.00540299,0.00146145,0.00031523,0.02191158,0.00074610
 ,0.00075172,-0.00413079,-0.00115656,-0.00075118,0.55400847,0.00024887,
 -0.04762377,-0.01498026,0.00182423,-0.00097321,0.00170534,0.00057637,0
 .00853406,0.00091747,-0.00319773,-0.00147673,0.00084237,0.03362657,0.5
 0493953,-0.00145089,-0.01476922,-0.04558963,0.00345068,-0.00007206,-0.
 00061231,0.00121031,0.00094135,0.00838578,-0.00308056,-0.00039947,-0.0
 0066025,0.01795600,-0.38117971,0.59548280,-0.00656452,0.01405005,-0.01
 951263,0.00078003,0.00024606,0.00005797,-0.01504813,-0.00203184,0.0005
 9023,0.00048438,-0.00229220,-0.00030528,-0.23399568,0.12748792,-0.1695
 1944,0.20578820,0.00362716,0.00561127,0.01090935,-0.00007158,0.0003084
 7,-0.00058071,0.00418389,-0.00068554,-0.00049972,-0.00430386,-0.002016
 06,-0.00120229,0.12149497,-0.21441065,0.19749567,-0.13080856,0.2639126
 7,-0.00622150,0.01205804,-0.00028822,-0.00095663,-0.00028320,0.0004848
 5,-0.00669344,-0.00131850,-0.00097205,0.00133461,0.00006328,-0.0006443
 4,-0.16389938,0.19889640,-0.30301153,0.17429683,-0.28993981,0.37747656
 ,-0.00799324,-0.01746726,0.01663831,-0.00002695,0.00171322,0.00063986,
 -0.01550106,0.00060302,-0.00245723,0.00068714,-0.00038486,0.00000510,-
 0.25292051,-0.16002599,0.15205279,0.05004548,0.00615908,-0.00273769,0.
 22445425,-0.00655896,0.00296687,0.01212800,0.00463113,-0.00053553,-0.0
 0152001,-0.00565078,-0.00110338,-0.00133776,0.00026511,0.00024354,-0.0
 0042065,-0.15562082,-0.24793801,0.19533574,-0.00777496,-0.05362912,0.0
 8234809,0.17029365,0.29913385,0.00390304,0.01040522,0.00342279,-0.0011
 9181,0.00005783,-0.00082555,0.00442267,-0.00052208,-0.00046279,0.00070
 774,-0.00028481,0.00041329,0.14704358,0.19429614,-0.25285591,0.0129278
 4,0.08457684,-0.07299752,-0.16324178,-0.28617581,0.32438503,-0.0153179
 2,-0.00036300,0.00608860,0.00081381,-0.00029987,0.00121002,-0.00318076
 ,0.00106379,0.00502750,0.00097884,0.00044293,-0.00045532,-0.00467551,-
 0.00353057,-0.00164443,0.00052762,0.00113148,-0.00028209,0.00060475,0.
 00142550,-0.00490773,0.01660948,0.00057149,-0.01789143,0.00212071,0.00
 002552,-0.00068696,-0.00412532,0.00101073,-0.00054331,-0.00022097,0.00
 003731,-0.00203780,0.00493932,-0.00115792,-0.00067592,0.00124924,0.000
 26559,0.00039357,-0.00044346,-0.00085671,0.00057441,-0.00191886,0.0001
 3359,0.01691563,0.00484260,0.00237346,-0.08567792,0.00041909,-0.001861
 18,-0.00092237,0.00244718,-0.00042742,-0.00005624,-0.00009122,0.002547
 86,-0.00146439,-0.00120715,-0.00071514,-0.00048790,-0.00032998,-0.0000
 3059,-0.00003448,-0.00129322,0.00001594,-0.00135611,-0.00589029,-0.001
 84253,0.10077966,-0.01458092,0.00022186,0.00364232,-0.00006491,-0.0005
 1006,0.00085434,-0.00108168,-0.00016657,-0.00456651,0.00072569,0.00007
 574,0.00020442,-0.00577803,0.00299034,0.00102554,-0.00201737,-0.001412
 58,0.00515928,0.00065014,-0.00100986,0.00033645,0.00363970,-0.00002960
 ,0.00110299,0.01850737,-0.00046030,-0.01781511,0.00109195,-0.00017863,
 -0.00109876,0.00590953,-0.00033946,0.00142974,-0.00015234,0.00023367,-
 0.00039637,-0.00411390,0.00008403,-0.00037529,0.00139846,0.00085795,0.
 00051537,-0.00138082,-0.00003414,0.00028736,-0.00043447,-0.00000384,0.
 00395180,-0.00006040,-0.00015927,0.01350125,0.00440232,0.00209514,-0.0
 8727316,0.00079805,0.00278710,-0.00144560,-0.00143081,0.00004793,-0.00
 106931,0.00010334,-0.00202917,-0.00131709,0.00084387,0.00021739,-0.000
 65103,0.00179446,-0.00072874,-0.00001326,0.00039386,-0.00037353,0.0002
 7678,0.00085375,0.00024188,-0.01078024,-0.00775883,-0.00225801,0.10227
 292\\0.00007291,0.00001147,-0.00003482,0.00003502,0.00000226,-0.000170
 20,-0.00001709,0.00005196,-0.00000627,-0.00006719,-0.00000143,0.000169
 39,-0.00011280,-0.00006170,-0.00001093,-0.00000033,0.00000041,0.000083
 11,0.00010115,-0.00005366,-0.00006702,0.00003029,-0.00017326,0.0000202
 9,-0.00004196,0.00022397,0.00001645\\\@


 IF MATHEMATICALLY YOU END UP WITH THE INCORRECT ANSWER,
 TRY MULTIPLYING BY THE PAGE NUMBER.
 Job cpu time:       0 days  0 hours 10 minutes 27.5 seconds.
 File lengths (MBytes):  RWF=     85 Int=      0 D2E=      0 Chk=      6 Scr=      1
 Normal termination of Gaussian 09 at Wed Aug 18 03:52:07 2021.
