 Entering Gaussian System, Link 0=g09
 Input=estrutura28_D2O.com
 Output=estrutura28_D2O.log
 Initial command:
 /home/scr/programs/g09/l1.exe "/home/scr/diego/Gau-11803.inp" -scrdir="/home/scr/diego/"
 Entering Link 1 = /home/scr/programs/g09/l1.exe PID=     11805.
  
 Copyright (c) 1988,1990,1992,1993,1995,1998,2003,2009,2013,
            Gaussian, Inc.  All Rights Reserved.
  
 This is part of the Gaussian(R) 09 program.  It is based on
 the Gaussian(R) 03 system (copyright 2003, Gaussian, Inc.),
 the Gaussian(R) 98 system (copyright 1998, Gaussian, Inc.),
 the Gaussian(R) 94 system (copyright 1995, Gaussian, Inc.),
 the Gaussian 92(TM) system (copyright 1992, Gaussian, Inc.),
 the Gaussian 90(TM) system (copyright 1990, Gaussian, Inc.),
 the Gaussian 88(TM) system (copyright 1988, Gaussian, Inc.),
 the Gaussian 86(TM) system (copyright 1986, Carnegie Mellon
 University), and the Gaussian 82(TM) system (copyright 1983,
 Carnegie Mellon University). Gaussian is a federally registered
 trademark of Gaussian, Inc.
  
 This software contains proprietary and confidential information,
 including trade secrets, belonging to Gaussian, Inc.
  
 This software is provided under written license and may be
 used, copied, transmitted, or stored only in accord with that
 written license.
  
 The following legend is applicable only to US Government
 contracts under FAR:
  
                    RESTRICTED RIGHTS LEGEND
  
 Use, reproduction and disclosure by the US Government is
 subject to restrictions as set forth in subparagraphs (a)
 and (c) of the Commercial Computer Software - Restricted
 Rights clause in FAR 52.227-19.
  
 Gaussian, Inc.
 340 Quinnipiac St., Bldg. 40, Wallingford CT 06492
  
  
 ---------------------------------------------------------------
 Warning -- This program may not be used in any manner that
 competes with the business of Gaussian, Inc. or will provide
 assistance to any competitor of Gaussian, Inc.  The licensee
 of this program is prohibited from giving any competitor of
 Gaussian, Inc. access to this program.  By using this program,
 the user acknowledges that Gaussian, Inc. is engaged in the
 business of creating and licensing software in the field of
 computational chemistry and represents and warrants to the
 licensee that it is not a competitor of Gaussian, Inc. and that
 it will not use this program in any manner prohibited above.
 ---------------------------------------------------------------
  

 Cite this work as:
 Gaussian 09, Revision D.01,
 M. J. Frisch, G. W. Trucks, H. B. Schlegel, G. E. Scuseria, 
 M. A. Robb, J. R. Cheeseman, G. Scalmani, V. Barone, B. Mennucci, 
 G. A. Petersson, H. Nakatsuji, M. Caricato, X. Li, H. P. Hratchian, 
 A. F. Izmaylov, J. Bloino, G. Zheng, J. L. Sonnenberg, M. Hada, 
 M. Ehara, K. Toyota, R. Fukuda, J. Hasegawa, M. Ishida, T. Nakajima, 
 Y. Honda, O. Kitao, H. Nakai, T. Vreven, J. A. Montgomery, Jr., 
 J. E. Peralta, F. Ogliaro, M. Bearpark, J. J. Heyd, E. Brothers, 
 K. N. Kudin, V. N. Staroverov, T. Keith, R. Kobayashi, J. Normand, 
 K. Raghavachari, A. Rendell, J. C. Burant, S. S. Iyengar, J. Tomasi, 
 M. Cossi, N. Rega, J. M. Millam, M. Klene, J. E. Knox, J. B. Cross, 
 V. Bakken, C. Adamo, J. Jaramillo, R. Gomperts, R. E. Stratmann, 
 O. Yazyev, A. J. Austin, R. Cammi, C. Pomelli, J. W. Ochterski, 
 R. L. Martin, K. Morokuma, V. G. Zakrzewski, G. A. Voth, 
 P. Salvador, J. J. Dannenberg, S. Dapprich, A. D. Daniels, 
 O. Farkas, J. B. Foresman, J. V. Ortiz, J. Cioslowski, 
 and D. J. Fox, Gaussian, Inc., Wallingford CT, 2013.
 
 ******************************************
 Gaussian 09:  EM64L-G09RevD.01 24-Apr-2013
                18-Aug-2021 
 ******************************************
 %mem=15gb
 %nproc=8
 Will use up to    8 processors via shared memory.
 ------------------------------------------------------------
 #b3lyp/gen pseudo=read opt freq=noraman scrf=(solvent=water)
 ------------------------------------------------------------
 1/14=-1,18=20,19=15,26=3,38=1/1,3;
 2/9=110,12=2,17=6,18=5,40=1/2;
 3/5=7,11=2,16=1,17=8,25=1,30=1,70=2201,71=1,72=1,74=-5/1,2,3;
 4//1;
 5/5=2,38=5,53=1/2;
 6/7=2,8=2,9=2,10=2,28=1/1;
 7//1,2,3,16;
 1/14=-1,18=20,19=15,26=3/3(2);
 2/9=110/2;
 99//99;
 2/9=110/2;
 3/5=7,6=1,11=2,16=1,17=8,25=1,30=1,70=2205,71=1,72=1,74=-5,82=7/1,2,3;
 4/5=5,16=3,69=1/1;
 5/5=2,38=5,53=1/2;
 7//1,2,3,16;
 1/14=-1,18=20,19=15,26=3/3(-5);
 2/9=110/2;
 6/7=2,8=2,9=2,10=2,19=2,28=1/1;
 99/9=1/99;
 ------------
 Estrutura 28
 ------------
 Symbolic Z-matrix:
 Charge = -2 Multiplicity = 1
 Pt                   -0.31955   0.33835   0. 
 Cl                   -0.31955   2.61835   0. 
 Br                   -0.31955  -2.09165   0. 
 N                     1.67045   0.33835   0. 
 O                     2.12378  -0.19364   1.16665 
 O                     2.12378   1.61469  -0.12262 
 Cl                   -0.31955   0.33835  -2.28 
 Cl                   -0.31955   0.33835   2.28 
 Br                   -2.74955   0.33835   0. 
 

 GradGradGradGradGradGradGradGradGradGradGradGradGradGradGradGradGradGrad
 Berny optimization.
 Initialization pass.
                           ----------------------------
                           !    Initial Parameters    !
                           ! (Angstroms and Degrees)  !
 --------------------------                            --------------------------
 ! Name  Definition              Value          Derivative Info.                !
 --------------------------------------------------------------------------------
 ! R1    R(1,2)                  2.28           estimate D2E/DX2                !
 ! R2    R(1,3)                  2.43           estimate D2E/DX2                !
 ! R3    R(1,4)                  1.99           estimate D2E/DX2                !
 ! R4    R(1,7)                  2.28           estimate D2E/DX2                !
 ! R5    R(1,8)                  2.28           estimate D2E/DX2                !
 ! R6    R(1,9)                  2.43           estimate D2E/DX2                !
 ! R7    R(4,5)                  1.36           estimate D2E/DX2                !
 ! R8    R(4,6)                  1.36           estimate D2E/DX2                !
 ! A1    A(2,1,4)               90.0            estimate D2E/DX2                !
 ! A2    A(2,1,7)               90.0            estimate D2E/DX2                !
 ! A3    A(2,1,8)               90.0            estimate D2E/DX2                !
 ! A4    A(2,1,9)               90.0            estimate D2E/DX2                !
 ! A5    A(3,1,4)               90.0            estimate D2E/DX2                !
 ! A6    A(3,1,7)               90.0            estimate D2E/DX2                !
 ! A7    A(3,1,8)               90.0            estimate D2E/DX2                !
 ! A8    A(3,1,9)               90.0            estimate D2E/DX2                !
 ! A9    A(4,1,7)               90.0            estimate D2E/DX2                !
 ! A10   A(4,1,8)               90.0            estimate D2E/DX2                !
 ! A11   A(7,1,9)               90.0            estimate D2E/DX2                !
 ! A12   A(8,1,9)               90.0            estimate D2E/DX2                !
 ! A13   A(1,4,5)              109.4712         estimate D2E/DX2                !
 ! A14   A(1,4,6)              109.4712         estimate D2E/DX2                !
 ! A15   A(5,4,6)              109.4713         estimate D2E/DX2                !
 ! A16   L(2,1,3,4,-1)         180.0            estimate D2E/DX2                !
 ! A17   L(4,1,9,2,-1)         180.0            estimate D2E/DX2                !
 ! A18   L(7,1,8,2,-1)         180.0            estimate D2E/DX2                !
 ! A19   L(2,1,3,4,-2)         180.0            estimate D2E/DX2                !
 ! A20   L(4,1,9,2,-2)         180.0            estimate D2E/DX2                !
 ! A21   L(7,1,8,2,-2)         180.0            estimate D2E/DX2                !
 ! D1    D(2,1,4,5)            114.5125         estimate D2E/DX2                !
 ! D2    D(2,1,4,6)             -5.4875         estimate D2E/DX2                !
 ! D3    D(3,1,4,5)            -65.4875         estimate D2E/DX2                !
 ! D4    D(3,1,4,6)            174.5125         estimate D2E/DX2                !
 ! D5    D(7,1,4,5)           -155.4875         estimate D2E/DX2                !
 ! D6    D(7,1,4,6)             84.5125         estimate D2E/DX2                !
 ! D7    D(8,1,4,5)             24.5125         estimate D2E/DX2                !
 ! D8    D(8,1,4,6)            -95.4875         estimate D2E/DX2                !
 --------------------------------------------------------------------------------
 Trust Radius=3.00D-01 FncErr=1.00D-07 GrdErr=1.00D-06
 Number of steps in this run=     47 maximum allowed number of steps=    100.
 GradGradGradGradGradGradGradGradGradGradGradGradGradGradGradGradGradGrad

                          Input orientation:                          
 ---------------------------------------------------------------------
 Center     Atomic      Atomic             Coordinates (Angstroms)
 Number     Number       Type             X           Y           Z
 ---------------------------------------------------------------------
      1         78           0       -0.319549    0.338346    0.000000
      2         17           0       -0.319549    2.618346    0.000000
      3         35           0       -0.319549   -2.091654    0.000000
      4          7           0        1.670451    0.338346    0.000000
      5          8           0        2.123784   -0.193637    1.166655
      6          8           0        2.123784    1.614690   -0.122617
      7         17           0       -0.319549    0.338346   -2.280000
      8         17           0       -0.319549    0.338346    2.280000
      9         35           0       -2.749549    0.338346    0.000000
 ---------------------------------------------------------------------
                    Distance matrix (angstroms):
                    1          2          3          4          5
     1  Pt   0.000000
     2  Cl   2.280000   0.000000
     3  Br   2.430000   4.710000   0.000000
     4  N    1.990000   3.026301   3.140860   0.000000
     5  O    2.759341   3.903615   3.306574   1.360000   0.000000
     6  O    2.759341   2.644284   4.440934   1.360000   2.220871
     7  Cl   2.280000   3.224407   3.332161   3.026301   4.258205
     8  Cl   2.280000   3.224407   3.332161   3.026301   2.737228
     9  Br   2.430000   3.332161   3.436539   4.420000   5.039193
                    6          7          8          9
     6  O    0.000000
     7  Cl   3.500462   0.000000
     8  Cl   3.656706   4.560000   0.000000
     9  Br   5.039193   3.332161   3.332161   0.000000
 Stoichiometry    Br2Cl3NO2Pt(2-)
 Framework group  C1[X(Br2Cl3NO2Pt)]
 Deg. of freedom    21
 Full point group                 C1      NOp   1
 Largest Abelian subgroup         C1      NOp   1
 Largest concise Abelian subgroup C1      NOp   1
                         Standard orientation:                         
 ---------------------------------------------------------------------
 Center     Atomic      Atomic             Coordinates (Angstroms)
 Number     Number       Type             X           Y           Z
 ---------------------------------------------------------------------
      1         78           0        0.182338   -0.139538    0.050206
      2         17           0        0.810795   -2.328225   -0.064214
      3         35           0       -0.487465    2.193141    0.172155
      4          7           0        2.076461    0.388331    0.356399
      5          8           0        2.518106    1.124466   -0.698425
      6          8           0        2.843284   -0.727702    0.483100
      7         17           0       -0.124075   -0.345144    2.300148
      8         17           0        0.488751    0.066068   -2.199735
      9         35           0       -2.130585   -0.784122   -0.323688
 ---------------------------------------------------------------------
 Rotational constants (GHZ):      0.4882437      0.4658446      0.3708707
 General basis read from cards:  (5D, 7F)
 ======================================================================================================
                                       Pseudopotential Parameters
 ======================================================================================================
  Center     Atomic      Valence      Angular      Power
  Number     Number     Electrons     Momentum     of R      Exponent        Coefficient   SO-Coeffient
 ======================================================================================================
    1         78           18
                                      G and up 
                                                     1      728.9394056       -0.16192680    0.00000000
                                                     2      320.6567800    -1320.28738520    0.00000000
                                                     2       52.8680174     -298.31781350    0.00000000
                                                     2       12.0280128      -87.58370650    0.00000000
                                                     2        3.5238913       -8.14932740    0.00000000
                                      S - G
                                                     0      409.4437358        2.73342180    0.00000000
                                                     1      274.5419231       59.70243290    0.00000000
                                                     2      127.5658570      891.45895500    0.00000000
                                                     2       32.9036631      368.44676560    0.00000000
                                                     2        5.0593880      238.02630900    0.00000000
                                                     2        4.1506556     -107.05564540    0.00000000
                                      P - G
                                                     0      466.1728892        1.88785680    0.00000000
                                                     1      120.7888259       76.01386290    0.00000000
                                                     2       36.4118791      343.55111160    0.00000000
                                                     2        5.6985408      119.49117860    0.00000000
                                      D - G
                                                     0      249.5650763        2.93436780    0.00000000
                                                     1      126.6678585       59.33065710    0.00000000
                                                     2       63.1430586      452.44451940    0.00000000
                                                     2       17.9059470      210.47694790    0.00000000
                                                     2        4.2239373       58.62541120    0.00000000
                                      F - G
                                                     0      121.8158799        3.95342530    0.00000000
                                                     1       60.8757030       53.85551820    0.00000000
                                                     2       31.4767147      247.43051330    0.00000000
                                                     2        9.8811751      127.81879760    0.00000000
                                                     2        2.7319874       15.37720460    0.00000000
    2         17
                                   No pseudopotential on this center.
    3         35
                                   No pseudopotential on this center.
    4          7
                                   No pseudopotential on this center.
    5          8
                                   No pseudopotential on this center.
    6          8
                                   No pseudopotential on this center.
    7         17
                                   No pseudopotential on this center.
    8         17
                                   No pseudopotential on this center.
    9         35
                                   No pseudopotential on this center.
 ======================================================================================================
 There are   196 symmetry adapted cartesian basis functions of A   symmetry.
 There are   182 symmetry adapted basis functions of A   symmetry.
   182 basis functions,   389 primitive gaussians,   196 cartesian basis functions
    82 alpha electrons       82 beta electrons
       nuclear repulsion energy      1890.4570296920 Hartrees.
 NAtoms=    9 NActive=    9 NUniq=    9 SFac= 1.00D+00 NAtFMM=   60 NAOKFM=F Big=F
 Integral buffers will be    131072 words long.
 Raffenetti 2 integral format.
 Two-electron integral symmetry is turned on.
 ------------------------------------------------------------------------------
 Polarizable Continuum Model (PCM)
 =================================
 Model                : PCM (using non-symmetric T matrix).
 Atomic radii         : UFF (Universal Force Field).
 Polarization charges : Total charges.
 Charge compensation  : None.
 Solution method      : On-the-fly selection.
 Cavity type          : Scaled VdW (van der Waals Surface) (Alpha=1.100).
 Cavity algorithm     : GePol (No added spheres)
                        Default sphere list used, NSphG=    9.
                        Lebedev-Laikov grids with approx.  5.0 points / Ang**2.
                        Smoothing algorithm: Karplus/York (Gamma=1.0000).
                        Polarization charges: spherical gaussians, with
                                              point-specific exponents (IZeta= 3).
                        Self-potential: point-specific (ISelfS= 7).
                        Self-field    : sphere-specific E.n sum rule (ISelfD= 2).
 1st derivatives      : Analytical E(r).r(x)/FMM algorithm (CHGder, D1EAlg=3).
                        Cavity 1st derivative terms included.
 Solvent              : Water, Eps=  78.355300 Eps(inf)=   1.777849
 ------------------------------------------------------------------------------
 Spheres list:
 ISph  on   Nord     Re0    Alpha      Xe            Ye            Ze
    1  Pt      1    1.3770  1.100      0.182338     -0.139538      0.050206
    2  Cl      2    1.9735  1.100      0.810795     -2.328225     -0.064214
    3  Br      3    2.0945  1.100     -0.487465      2.193141      0.172155
    4   N      4    1.8300  1.100      2.076461      0.388331      0.356399
    5   O      5    1.7500  1.100      2.518106      1.124466     -0.698425
    6   O      6    1.7500  1.100      2.843284     -0.727702      0.483100
    7  Cl      7    1.9735  1.100     -0.124075     -0.345144      2.300148
    8  Cl      8    1.9735  1.100      0.488751      0.066068     -2.199735
    9  Br      9    2.0945  1.100     -2.130585     -0.784122     -0.323688
 ------------------------------------------------------------------------------
 One-electron integrals computed using PRISM.
   1 Symmetry operations used in ECPInt.
 ECPInt:  NShTT=    2775 NPrTT=   14060 LenC2=    2561 LenP2D=    9065.
 LDataN:  DoStor=T MaxTD1= 6 Len=  172
 NBasis=   182 RedAO= T EigKep=  5.49D-03  NBF=   182
 NBsUse=   182 1.00D-06 EigRej= -1.00D+00 NBFU=   182
 Defaulting to unpruned grid for atomic number  78.
 ExpMin= 2.90D-02 ExpMax= 1.13D+05 ExpMxC= 1.70D+04 IAcc=3 IRadAn=         5 AccDes= 0.00D+00
 Harris functional with IExCor=  402 and IRadAn=       5 diagonalized for initial guess.
 HarFok:  IExCor=  402 AccDes= 0.00D+00 IRadAn=         5 IDoV= 1 UseB2=F ITyADJ=14
 ICtDFT=  3500011 ScaDFX=  1.000000  1.000000  1.000000  1.000000
 Defaulting to unpruned grid for atomic number  78.
 Defaulting to unpruned grid for atomic number  78.
 Defaulting to unpruned grid for atomic number  78.
 Defaulting to unpruned grid for atomic number  78.
 Defaulting to unpruned grid for atomic number  78.
 Defaulting to unpruned grid for atomic number  78.
 Defaulting to unpruned grid for atomic number  78.
 Defaulting to unpruned grid for atomic number  78.
 FoFCou: FMM=F IPFlag=           0 FMFlag=      100000 FMFlg1=           0
         NFxFlg=           0 DoJE=T BraDBF=F KetDBF=T FulRan=T
         wScrn=  0.000000 ICntrl=     500 IOpCl=  0 I1Cent=   200000004 NGrid=           0
         NMat0=    1 NMatS0=      1 NMatT0=    0 NMatD0=    1 NMtDS0=    0 NMtDT0=    0
 Petite list used in FoFCou.
 Keep R1 ints in memory in canonical form, NReq=144214037.
 Requested convergence on RMS density matrix=1.00D-08 within 128 cycles.
 Requested convergence on MAX density matrix=1.00D-06.
 Requested convergence on             energy=1.00D-06.
 No special actions if energy rises.
 Defaulting to unpruned grid for atomic number  78.
 Defaulting to unpruned grid for atomic number  78.
 Defaulting to unpruned grid for atomic number  78.
 Defaulting to unpruned grid for atomic number  78.
 Defaulting to unpruned grid for atomic number  78.
 Defaulting to unpruned grid for atomic number  78.
 Defaulting to unpruned grid for atomic number  78.
 Defaulting to unpruned grid for atomic number  78.
 Inv3:  Mode=1 IEnd=     6169068.
 Iteration    1 A*A^-1 deviation from unit magnitude is 6.66D-15 for   1329.
 Iteration    1 A*A^-1 deviation from orthogonality  is 3.11D-15 for    784    452.
 Iteration    1 A^-1*A deviation from unit magnitude is 6.77D-15 for    974.
 Iteration    1 A^-1*A deviation from orthogonality  is 1.59D-10 for    332    318.
 Iteration    2 A*A^-1 deviation from unit magnitude is 6.44D-15 for     71.
 Iteration    2 A*A^-1 deviation from orthogonality  is 4.83D-15 for    821    430.
 Iteration    2 A^-1*A deviation from unit magnitude is 1.89D-15 for    372.
 Iteration    2 A^-1*A deviation from orthogonality  is 5.31D-16 for   1119    956.
 EnCoef did     3 forward-backward iterations
 EnCoef did   100 forward-backward iterations
 EnCoef did     4 forward-backward iterations
 Error on total polarization charges =  0.01566
 SCF Done:  E(RB3LYP) =  -6852.42284279     A.U. after   19 cycles
            NFock= 19  Conv=0.66D-08     -V/T= 2.0136

 **********************************************************************

            Population analysis using the SCF density.

 **********************************************************************

 Orbital symmetries:
       Occupied  (A) (A) (A) (A) (A) (A) (A) (A) (A) (A) (A) (A)
                 (A) (A) (A) (A) (A) (A) (A) (A) (A) (A) (A) (A)
                 (A) (A) (A) (A) (A) (A) (A) (A) (A) (A) (A) (A)
                 (A) (A) (A) (A) (A) (A) (A) (A) (A) (A) (A) (A)
                 (A) (A) (A) (A) (A) (A) (A) (A) (A) (A) (A) (A)
                 (A) (A) (A) (A) (A) (A) (A) (A) (A) (A) (A) (A)
                 (A) (A) (A) (A) (A) (A) (A) (A) (A) (A)
       Virtual   (A) (A) (A) (A) (A) (A) (A) (A) (A) (A) (A) (A)
                 (A) (A) (A) (A) (A) (A) (A) (A) (A) (A) (A) (A)
                 (A) (A) (A) (A) (A) (A) (A) (A) (A) (A) (A) (A)
                 (A) (A) (A) (A) (A) (A) (A) (A) (A) (A) (A) (A)
                 (A) (A) (A) (A) (A) (A) (A) (A) (A) (A) (A) (A)
                 (A) (A) (A) (A) (A) (A) (A) (A) (A) (A) (A) (A)
                 (A) (A) (A) (A) (A) (A) (A) (A) (A) (A) (A) (A)
                 (A) (A) (A) (A) (A) (A) (A) (A) (A) (A) (A) (A)
                 (A) (A) (A) (A)
 The electronic state is 1-A.
 Alpha  occ. eigenvalues -- -482.74546-482.74502-101.45053-101.44614-101.44394
 Alpha  occ. eigenvalues --  -62.42713 -62.42666 -56.25901 -56.25854 -56.25611
 Alpha  occ. eigenvalues --  -56.25610 -56.25565 -56.25560 -19.13502 -19.13453
 Alpha  occ. eigenvalues --  -14.48457  -9.40401  -9.39980  -9.39777  -8.64486
 Alpha  occ. eigenvalues --   -8.64436  -7.17205  -7.16784  -7.16590  -7.16363
 Alpha  occ. eigenvalues --   -7.16354  -7.15941  -7.15926  -7.15736  -7.15710
 Alpha  occ. eigenvalues --   -6.47677  -6.47630  -6.46619  -6.46616  -6.46575
 Alpha  occ. eigenvalues --   -6.46557  -4.02179  -2.59131  -2.59083  -2.58831
 Alpha  occ. eigenvalues --   -2.58829  -2.58788  -2.58773  -2.57997  -2.57997
 Alpha  occ. eigenvalues --   -2.57946  -2.57945  -2.23706  -2.23407  -2.23253
 Alpha  occ. eigenvalues --   -1.08232  -0.92250  -0.77841  -0.75506  -0.75211
 Alpha  occ. eigenvalues --   -0.72750  -0.71991  -0.64239  -0.48932  -0.45735
 Alpha  occ. eigenvalues --   -0.45601  -0.42395  -0.41215  -0.40668  -0.39104
 Alpha  occ. eigenvalues --   -0.37437  -0.35714  -0.32384  -0.31825  -0.28755
 Alpha  occ. eigenvalues --   -0.27276  -0.26533  -0.26453  -0.25671  -0.25304
 Alpha  occ. eigenvalues --   -0.25163  -0.24860  -0.24711  -0.24489  -0.23857
 Alpha  occ. eigenvalues --   -0.23733  -0.22300
 Alpha virt. eigenvalues --   -0.12345  -0.08350  -0.04431   0.05569   0.05881
 Alpha virt. eigenvalues --    0.06144   0.13771   0.20059   0.20205   0.25756
 Alpha virt. eigenvalues --    0.27203   0.27613   0.37404   0.37940   0.39333
 Alpha virt. eigenvalues --    0.40519   0.45303   0.46891   0.49806   0.55373
 Alpha virt. eigenvalues --    0.56607   0.56689   0.57026   0.58215   0.59569
 Alpha virt. eigenvalues --    0.61416   0.62128   0.63469   0.66388   0.67433
 Alpha virt. eigenvalues --    0.68770   0.71060   0.71188   0.71594   0.72933
 Alpha virt. eigenvalues --    0.73195   0.75881   0.77660   0.78477   0.79122
 Alpha virt. eigenvalues --    0.79788   0.81422   0.81855   0.82381   0.82514
 Alpha virt. eigenvalues --    0.82770   0.85779   0.89261   0.89535   0.92978
 Alpha virt. eigenvalues --    0.93337   0.96234   0.97549   0.99431   1.00959
 Alpha virt. eigenvalues --    1.04716   1.06068   1.06728   1.07874   1.10314
 Alpha virt. eigenvalues --    1.10828   1.13820   1.14959   1.18643   1.21774
 Alpha virt. eigenvalues --    1.22070   1.22797   1.27627   1.32353   1.37199
 Alpha virt. eigenvalues --    1.44350   1.46997   1.51409   1.52890   1.96560
 Alpha virt. eigenvalues --    1.99002   2.06136   2.30606   2.34629   2.66493
 Alpha virt. eigenvalues --    2.66911   2.68129   2.70108   2.76163   2.98484
 Alpha virt. eigenvalues --    3.02598   3.22991   3.44766   3.45435   3.46937
 Alpha virt. eigenvalues --    3.47896   3.50235   3.52574   3.55101   3.60845
 Alpha virt. eigenvalues --    3.64778   3.69066   3.71836   3.78110   7.14011
          Condensed to atoms (all electrons):
               1          2          3          4          5          6
     1  Pt  17.348899   0.214879   0.185407   0.000837  -0.012859  -0.002160
     2  Cl   0.214879  17.112936  -0.003274  -0.014793   0.000314  -0.027899
     3  Br   0.185407  -0.003274  35.069546  -0.022110   0.000304   0.000521
     4  N    0.000837  -0.014793  -0.022110   6.728502   0.179469   0.171683
     5  O   -0.012859   0.000314   0.000304   0.179469   8.224316  -0.093526
     6  O   -0.002160  -0.027899   0.000521   0.171683  -0.093526   8.236472
     7  Cl   0.226748  -0.018924  -0.024386  -0.016677   0.000220  -0.000393
     8  Cl   0.227610  -0.019802  -0.021987  -0.015944  -0.014663   0.000376
     9  Br   0.228578  -0.023296  -0.021506  -0.004444   0.000099   0.000092
               7          8          9
     1  Pt   0.226748   0.227610   0.228578
     2  Cl  -0.018924  -0.019802  -0.023296
     3  Br  -0.024386  -0.021987  -0.021506
     4  N   -0.016677  -0.015944  -0.004444
     5  O    0.000220  -0.014663   0.000099
     6  O   -0.000393   0.000376   0.000092
     7  Cl  17.093866  -0.001891  -0.016675
     8  Cl  -0.001891  17.093216  -0.022889
     9  Br  -0.016675  -0.022889  35.018172
 Mulliken charges:
               1
     1  Pt  -0.417939
     2  Cl  -0.220141
     3  Br  -0.162514
     4  N   -0.006522
     5  O   -0.283675
     6  O   -0.285166
     7  Cl  -0.241886
     8  Cl  -0.224025
     9  Br  -0.158133
 Sum of Mulliken charges =  -2.00000
 Mulliken charges with hydrogens summed into heavy atoms:
               1
     1  Pt  -0.417939
     2  Cl  -0.220141
     3  Br  -0.162514
     4  N   -0.006522
     5  O   -0.283675
     6  O   -0.285166
     7  Cl  -0.241886
     8  Cl  -0.224025
     9  Br  -0.158133
 Electronic spatial extent (au):  <R**2>=           3221.2123
 Charge=             -2.0000 electrons
 Dipole moment (field-independent basis, Debye):
    X=             -3.9805    Y=              1.4413    Z=              0.6262  Tot=              4.2795
 Quadrupole moment (field-independent basis, Debye-Ang):
   XX=           -149.3540   YY=           -141.8331   ZZ=           -139.1949
   XY=              1.2889   XZ=              2.5340   YZ=              2.5597
 Traceless Quadrupole moment (field-independent basis, Debye-Ang):
   XX=             -5.8933   YY=              1.6276   ZZ=              4.2658
   XY=              1.2889   XZ=              2.5340   YZ=              2.5597
 Octapole moment (field-independent basis, Debye-Ang**2):
  XXX=            -81.7373  YYY=             25.2309  ZZZ=             -1.8251  XYY=            -20.4043
  XXY=             11.4481  XXZ=              5.2220  XZZ=            -15.3200  YZZ=              8.8117
  YYZ=              0.8459  XYZ=              6.9654
 Hexadecapole moment (field-independent basis, Debye-Ang**3):
 XXXX=          -1582.3615 YYYY=          -1337.7509 ZZZZ=          -1054.2625 XXXY=             17.1974
 XXXZ=             22.2982 YYYX=             15.1192 YYYZ=             13.1186 ZZZX=             19.3618
 ZZZY=             15.9797 XXYY=           -476.8129 XXZZ=           -412.7172 YYZZ=           -389.5923
 XXYZ=             20.7010 YYXZ=              8.1370 ZZXY=              4.3889
 N-N= 1.890457029692D+03 E-N=-2.014983036260D+04  KE= 6.760659638797D+03
   1 Symmetry operations used in ECPInt.
 ECPInt:  NShTT=    2775 NPrTT=   14060 LenC2=    2561 LenP2D=    9065.
 LDataN:  DoStor=T MaxTD1= 7 Len=  274
 D1PCM: PCM CHGder 1st derivatives, ID1Alg=3 FixD1E=F DoIter=F DoCFld=F I1PDM=0.
 Calling FoFJK, ICntrl=      2127 FMM=F ISym2X=0 I1Cent= 0 IOpClX= 0 NMat=1 NMatS=1 NMatT=0.
 Defaulting to unpruned grid for atomic number  78.
 Defaulting to unpruned grid for atomic number  78.
 Defaulting to unpruned grid for atomic number  78.
 Defaulting to unpruned grid for atomic number  78.
 Defaulting to unpruned grid for atomic number  78.
 Defaulting to unpruned grid for atomic number  78.
 Defaulting to unpruned grid for atomic number  78.
 Defaulting to unpruned grid for atomic number  78.
 ***** Axes restored to original set *****
 -------------------------------------------------------------------
 Center     Atomic                   Forces (Hartrees/Bohr)
 Number     Number              X              Y              Z
 -------------------------------------------------------------------
      1       78          -0.017303809   -0.025090624   -0.020677725
      2       17          -0.013011846    0.048195826    0.002166662
      3       35          -0.000761033   -0.033829292   -0.000444617
      4        7           0.101469594    0.100887975    0.143141006
      5        8          -0.018066200    0.004653506   -0.100386951
      6        8          -0.012868954   -0.099463024   -0.028079929
      7       17          -0.000017683    0.000292079   -0.042729759
      8       17          -0.006275076    0.002652845    0.044961737
      9       35          -0.033164992    0.001700709    0.002049578
 -------------------------------------------------------------------
 Cartesian Forces:  Max     0.143141006 RMS     0.051724285

 GradGradGradGradGradGradGradGradGradGradGradGradGradGradGradGradGradGrad
 Berny optimization.
 FormGI is forming the generalized inverse of G from B-inverse, IUseBI=4.
 Internal  Forces:  Max     0.095091296 RMS     0.033253362
 Search for a local minimum.
 Step number   1 out of a maximum of   47
 All quantities printed in internal units (Hartrees-Bohrs-Radians)
 Mixed Optimization -- RFO/linear search
 Second derivative matrix not updated -- first step.
 ITU=  0
     Eigenvalues ---    0.00230   0.04734   0.08487   0.08487   0.12615
     Eigenvalues ---    0.12615   0.12615   0.12615   0.16743   0.19509
     Eigenvalues ---    0.19509   0.20378   0.22001   0.22001   0.22001
     Eigenvalues ---    0.25000   0.25000   0.25000   0.25000   0.52948
     Eigenvalues ---    0.52948
 RFO step:  Lambda=-1.14885034D-01 EMin= 2.30000000D-03
 Linear search not attempted -- first point.
 Maximum step size (   0.300) exceeded in Quadratic search.
    -- Step size scaled by   0.602
 Iteration  1 RMS(Cart)=  0.10337312 RMS(Int)=  0.00641383
 Iteration  2 RMS(Cart)=  0.00561384 RMS(Int)=  0.00320610
 Iteration  3 RMS(Cart)=  0.00006105 RMS(Int)=  0.00320581
 Iteration  4 RMS(Cart)=  0.00000070 RMS(Int)=  0.00320581
 Variable       Old X    -DE/DX   Delta X   Delta X   Delta X     New X
                                 (Linear)    (Quad)   (Total)
    R1        4.30858   0.04819   0.00000   0.08659   0.08659   4.39517
    R2        4.59203   0.03384   0.00000   0.06569   0.06569   4.65773
    R3        3.76056   0.07052   0.00000   0.13318   0.13318   3.89373
    R4        4.30858   0.04273   0.00000   0.07679   0.07679   4.38536
    R5        4.30858   0.04496   0.00000   0.08079   0.08079   4.38936
    R6        4.59203   0.03316   0.00000   0.06438   0.06438   4.65642
    R7        2.57003  -0.09395   0.00000  -0.08774  -0.08774   2.48229
    R8        2.57003  -0.09509   0.00000  -0.08881  -0.08881   2.48122
    A1        1.57080   0.02532   0.00000   0.05204   0.05203   1.62283
    A2        1.57080   0.00135   0.00000   0.00249   0.00261   1.57341
    A3        1.57080  -0.00345   0.00000  -0.00882  -0.00934   1.56145
    A4        1.57080  -0.01595   0.00000  -0.02865  -0.02864   1.54216
    A5        1.57080  -0.01044   0.00000  -0.01489  -0.01488   1.55592
    A6        1.57080  -0.00013   0.00000   0.00118   0.00108   1.57187
    A7        1.57080   0.00224   0.00000   0.00516   0.00503   1.57582
    A8        1.57080   0.00107   0.00000  -0.00851  -0.00850   1.56230
    A9        1.57080  -0.00447   0.00000  -0.00541  -0.00534   1.56546
   A10        1.57080   0.01124   0.00000   0.02232   0.02243   1.59323
   A11        1.57080   0.00233   0.00000   0.00006   0.00001   1.57080
   A12        1.57080  -0.00910   0.00000  -0.01698  -0.01696   1.55383
   A13        1.91063   0.03428   0.00000   0.08280   0.07383   1.98446
   A14        1.91063   0.04947   0.00000   0.10784   0.09900   2.00963
   A15        1.91063  -0.00365   0.00000   0.04649   0.03310   1.94374
   A16        3.14159   0.01488   0.00000   0.03715   0.03715   3.17875
   A17        3.14159   0.00937   0.00000   0.02339   0.02339   3.16499
   A18        3.14159  -0.00210   0.00000  -0.00634  -0.00673   3.13486
   A19        3.14159  -0.00122   0.00000  -0.00366  -0.00349   3.13810
   A20        3.14159  -0.00214   0.00000  -0.00534  -0.00527   3.13632
   A21        3.14159  -0.00677   0.00000  -0.01691  -0.01677   3.12482
    D1        1.99862   0.02187   0.00000   0.08293   0.08544   2.08406
    D2       -0.09578  -0.02495   0.00000  -0.09076  -0.09279  -0.18857
    D3       -1.14297   0.02309   0.00000   0.08659   0.08894  -1.05404
    D4        3.04582  -0.02373   0.00000  -0.08709  -0.08930   2.95652
    D5       -2.71377   0.02322   0.00000   0.08541   0.08778  -2.62599
    D6        1.47502  -0.02360   0.00000  -0.08827  -0.09046   1.38456
    D7        0.42782   0.02533   0.00000   0.09175   0.09363   0.52146
    D8       -1.66657  -0.02149   0.00000  -0.08193  -0.08460  -1.75117
         Item               Value     Threshold  Converged?
 Maximum Force            0.095091     0.000450     NO 
 RMS     Force            0.033253     0.000300     NO 
 Maximum Displacement     0.291190     0.001800     NO 
 RMS     Displacement     0.101057     0.001200     NO 
 Predicted change in Energy=-5.720034D-02
 GradGradGradGradGradGradGradGradGradGradGradGradGradGradGradGradGradGrad

                          Input orientation:                          
 ---------------------------------------------------------------------
 Center     Atomic      Atomic             Coordinates (Angstroms)
 Number     Number       Type             X           Y           Z
 ---------------------------------------------------------------------
      1         78           0       -0.344466    0.361970    0.018667
      2         17           0       -0.462149    2.684804    0.024640
      3         35           0       -0.311366   -2.102570    0.019906
      4          7           0        1.715875    0.358996    0.041894
      5          8           0        2.231206   -0.235648    1.093701
      6          8           0        2.277875    1.526408   -0.170918
      7         17           0       -0.305924    0.363823   -2.301647
      8         17           0       -0.422722    0.373763    2.340069
      9         35           0       -2.807602    0.307927   -0.022273
 ---------------------------------------------------------------------
                    Distance matrix (angstroms):
                    1          2          3          4          5
     1  Pt   0.000000
     2  Cl   2.325821   0.000000
     3  Br   2.464762   4.789750   0.000000
     4  N    2.060474   3.186451   3.188965   0.000000
     5  O    2.854282   4.114133   3.332132   1.313570   0.000000
     6  O    2.875505   2.981252   4.462069   1.313005   2.169396
     7  Cl   2.320634   3.289828   3.387142   3.095137   4.280745
     8  Cl   2.322751   3.271647   3.395259   3.139335   2.994687
     9  Br   2.464070   3.339595   3.470370   4.524221   5.189456
                    6          7          8          9
     6  O    0.000000
     7  Cl   3.545084   0.000000
     8  Cl   3.863531   4.643196   0.000000
     9  Br   5.231527   3.384829   3.357476   0.000000
 Stoichiometry    Br2Cl3NO2Pt(2-)
 Framework group  C1[X(Br2Cl3NO2Pt)]
 Deg. of freedom    21
 Full point group                 C1      NOp   1
 Largest Abelian subgroup         C1      NOp   1
 Largest concise Abelian subgroup C1      NOp   1
                         Standard orientation:                         
 ---------------------------------------------------------------------
 Center     Atomic      Atomic             Coordinates (Angstroms)
 Number     Number       Type             X           Y           Z
 ---------------------------------------------------------------------
      1         78           0        0.150457   -0.190920    0.034447
      2         17           0        0.173554   -2.513241   -0.091012
      3         35           0        0.035823    2.268495    0.149290
      4          7           0        2.196030   -0.075059    0.252984
      5          8           0        2.791748    0.600696   -0.703019
      6          8           0        2.798899   -1.219799    0.476822
      7         17           0       -0.076625   -0.311707    2.340784
      8         17           0        0.339100   -0.085838   -2.278244
      9         35           0       -2.299981   -0.272684   -0.211123
 ---------------------------------------------------------------------
 Rotational constants (GHZ):      0.4749300      0.4448616      0.3565020
 Basis read from rwf:  (5D, 7F)
 Pseudo-potential data read from rwf file.
 There are   196 symmetry adapted cartesian basis functions of A   symmetry.
 There are   182 symmetry adapted basis functions of A   symmetry.
   182 basis functions,   389 primitive gaussians,   196 cartesian basis functions
    82 alpha electrons       82 beta electrons
       nuclear repulsion energy      1856.8714873193 Hartrees.
 NAtoms=    9 NActive=    9 NUniq=    9 SFac= 1.00D+00 NAtFMM=   60 NAOKFM=F Big=F
 Integral buffers will be    131072 words long.
 Raffenetti 2 integral format.
 Two-electron integral symmetry is turned on.
 ------------------------------------------------------------------------------
 Polarizable Continuum Model (PCM)
 =================================
 Model                : PCM (using non-symmetric T matrix).
 Atomic radii         : UFF (Universal Force Field).
 Polarization charges : Total charges.
 Charge compensation  : None.
 Solution method      : On-the-fly selection.
 Cavity type          : Scaled VdW (van der Waals Surface) (Alpha=1.100).
 Cavity algorithm     : GePol (No added spheres)
                        Default sphere list used, NSphG=    9.
                        Lebedev-Laikov grids with approx.  5.0 points / Ang**2.
                        Smoothing algorithm: Karplus/York (Gamma=1.0000).
                        Polarization charges: spherical gaussians, with
                                              point-specific exponents (IZeta= 3).
                        Self-potential: point-specific (ISelfS= 7).
                        Self-field    : sphere-specific E.n sum rule (ISelfD= 2).
 1st derivatives      : Analytical E(r).r(x)/FMM algorithm (CHGder, D1EAlg=3).
                        Cavity 1st derivative terms included.
 Solvent              : Water, Eps=  78.355300 Eps(inf)=   1.777849
 ------------------------------------------------------------------------------
 Spheres list:
 ISph  on   Nord     Re0    Alpha      Xe            Ye            Ze
    1  Pt      1    1.3770  1.100      0.150457     -0.190920      0.034447
    2  Cl      2    1.9735  1.100      0.173554     -2.513241     -0.091012
    3  Br      3    2.0945  1.100      0.035823      2.268495      0.149290
    4   N      4    1.8300  1.100      2.196030     -0.075059      0.252984
    5   O      5    1.7500  1.100      2.791748      0.600696     -0.703019
    6   O      6    1.7500  1.100      2.798899     -1.219799      0.476822
    7  Cl      7    1.9735  1.100     -0.076625     -0.311707      2.340784
    8  Cl      8    1.9735  1.100      0.339100     -0.085838     -2.278244
    9  Br      9    2.0945  1.100     -2.299981     -0.272684     -0.211123
 ------------------------------------------------------------------------------
 One-electron integrals computed using PRISM.
   1 Symmetry operations used in ECPInt.
 ECPInt:  NShTT=    2775 NPrTT=   14060 LenC2=    2549 LenP2D=    8985.
 LDataN:  DoStor=T MaxTD1= 6 Len=  172
 NBasis=   182 RedAO= T EigKep=  5.72D-03  NBF=   182
 NBsUse=   182 1.00D-06 EigRej= -1.00D+00 NBFU=   182
 Defaulting to unpruned grid for atomic number  78.
 Initial guess from the checkpoint file:  "/home/scr/diego/Gau-11805.chk"
 B after Tr=     0.000000    0.000000    0.000000
         Rot=    0.993263    0.005852   -0.021807    0.113662 Ang=  13.31 deg.
 ExpMin= 2.90D-02 ExpMax= 1.13D+05 ExpMxC= 1.70D+04 IAcc=3 IRadAn=         5 AccDes= 0.00D+00
 Harris functional with IExCor=  402 and IRadAn=       5 diagonalized for initial guess.
 HarFok:  IExCor=  402 AccDes= 0.00D+00 IRadAn=         5 IDoV= 1 UseB2=F ITyADJ=14
 ICtDFT=  3500011 ScaDFX=  1.000000  1.000000  1.000000  1.000000
 Defaulting to unpruned grid for atomic number  78.
 Defaulting to unpruned grid for atomic number  78.
 Defaulting to unpruned grid for atomic number  78.
 Defaulting to unpruned grid for atomic number  78.
 Defaulting to unpruned grid for atomic number  78.
 Defaulting to unpruned grid for atomic number  78.
 Defaulting to unpruned grid for atomic number  78.
 Defaulting to unpruned grid for atomic number  78.
 FoFCou: FMM=F IPFlag=           0 FMFlag=      100000 FMFlg1=           0
         NFxFlg=           0 DoJE=T BraDBF=F KetDBF=T FulRan=T
         wScrn=  0.000000 ICntrl=     500 IOpCl=  0 I1Cent=   200000004 NGrid=           0
         NMat0=    1 NMatS0=      1 NMatT0=    0 NMatD0=    1 NMtDS0=    0 NMtDT0=    0
 Petite list used in FoFCou.
 Keep R1 ints in memory in canonical form, NReq=144343929.
 Requested convergence on RMS density matrix=1.00D-08 within 128 cycles.
 Requested convergence on MAX density matrix=1.00D-06.
 Requested convergence on             energy=1.00D-06.
 No special actions if energy rises.
 Defaulting to unpruned grid for atomic number  78.
 Defaulting to unpruned grid for atomic number  78.
 Defaulting to unpruned grid for atomic number  78.
 Defaulting to unpruned grid for atomic number  78.
 Defaulting to unpruned grid for atomic number  78.
 Defaulting to unpruned grid for atomic number  78.
 Defaulting to unpruned grid for atomic number  78.
 Defaulting to unpruned grid for atomic number  78.
 Inv3:  Mode=1 IEnd=     6544587.
 Iteration    1 A*A^-1 deviation from unit magnitude is 5.55D-15 for    604.
 Iteration    1 A*A^-1 deviation from orthogonality  is 3.94D-15 for    803     99.
 Iteration    1 A^-1*A deviation from unit magnitude is 5.55D-15 for    176.
 Iteration    1 A^-1*A deviation from orthogonality  is 3.85D-14 for    541    511.
 Error on total polarization charges =  0.01493
 SCF Done:  E(RB3LYP) =  -6852.47770518     A.U. after   14 cycles
            NFock= 14  Conv=0.95D-08     -V/T= 2.0136
   1 Symmetry operations used in ECPInt.
 ECPInt:  NShTT=    2775 NPrTT=   14060 LenC2=    2549 LenP2D=    8985.
 LDataN:  DoStor=T MaxTD1= 7 Len=  274
 D1PCM: PCM CHGder 1st derivatives, ID1Alg=3 FixD1E=F DoIter=F DoCFld=F I1PDM=0.
 Calling FoFJK, ICntrl=      2127 FMM=F ISym2X=0 I1Cent= 0 IOpClX= 0 NMat=1 NMatS=1 NMatT=0.
 Defaulting to unpruned grid for atomic number  78.
 Defaulting to unpruned grid for atomic number  78.
 Defaulting to unpruned grid for atomic number  78.
 Defaulting to unpruned grid for atomic number  78.
 Defaulting to unpruned grid for atomic number  78.
 Defaulting to unpruned grid for atomic number  78.
 Defaulting to unpruned grid for atomic number  78.
 Defaulting to unpruned grid for atomic number  78.
 ***** Axes restored to original set *****
 -------------------------------------------------------------------
 Center     Atomic                   Forces (Hartrees/Bohr)
 Number     Number              X              Y              Z
 -------------------------------------------------------------------
      1       78          -0.004868242   -0.018349528   -0.016175278
      2       17          -0.002049501    0.028125735    0.000799779
      3       35           0.000557228   -0.021861045   -0.000602458
      4        7           0.091344080    0.081632929    0.117732216
      5        8          -0.030079361    0.002672693   -0.078380694
      6        8          -0.032812540   -0.074230063   -0.024270197
      7       17           0.001466088    0.000239273   -0.026794049
      8       17          -0.001437263    0.000851641    0.026793697
      9       35          -0.022120489    0.000918364    0.000896985
 -------------------------------------------------------------------
 Cartesian Forces:  Max     0.117732216 RMS     0.041690263

 GradGradGradGradGradGradGradGradGradGradGradGradGradGradGradGradGradGrad
 Berny optimization.
 Using GEDIIS/GDIIS optimizer.
 FormGI is forming the generalized inverse of G from B-inverse, IUseBI=4.
 Internal  Forces:  Max     0.076090916 RMS     0.022429796
 Search for a local minimum.
 Step number   2 out of a maximum of   47
 All quantities printed in internal units (Hartrees-Bohrs-Radians)
 Mixed Optimization -- RFO/linear search
 Update second derivatives using D2CorX and points    1    2
 DE= -5.49D-02 DEPred=-5.72D-02 R= 9.59D-01
 TightC=F SS=  1.41D+00  RLast= 3.86D-01 DXNew= 5.0454D-01 1.1569D+00
 Trust test= 9.59D-01 RLast= 3.86D-01 DXMaxT set to 5.05D-01
 ITU=  1  0
 Use linear search instead of GDIIS.
 Linear search step of   0.586 exceeds DXMaxT=   0.505 but not scaled.
 Quartic linear search produced a step of  2.00000.
 Iteration  1 RMS(Cart)=  0.17213066 RMS(Int)=  0.02831942
 Iteration  2 RMS(Cart)=  0.01677221 RMS(Int)=  0.01594998
 Iteration  3 RMS(Cart)=  0.00052105 RMS(Int)=  0.01594430
 Iteration  4 RMS(Cart)=  0.00001161 RMS(Int)=  0.01594429
 Iteration  5 RMS(Cart)=  0.00000038 RMS(Int)=  0.01594429
 Variable       Old X    -DE/DX   Delta X   Delta X   Delta X     New X
                                 (Linear)    (Quad)   (Total)
    R1        4.39517   0.02819   0.17318   0.00000   0.17318   4.56835
    R2        4.65773   0.02188   0.13138   0.00000   0.13138   4.78911
    R3        3.89373   0.02862   0.26635   0.00000   0.26635   4.16008
    R4        4.38536   0.02679   0.15358   0.00000   0.15358   4.53894
    R5        4.38936   0.02685   0.16157   0.00000   0.16157   4.55094
    R6        4.65642   0.02208   0.12876   0.00000   0.12876   4.78518
    R7        2.48229  -0.07583  -0.17548   0.00000  -0.17548   2.30681
    R8        2.48122  -0.07609  -0.17761   0.00000  -0.17761   2.30361
    A1        1.62283   0.00013   0.10406   0.00000   0.10390   1.72673
    A2        1.57341   0.00044   0.00522   0.00000   0.00592   1.57933
    A3        1.56145  -0.00108  -0.01869   0.00000  -0.02172   1.53974
    A4        1.54216  -0.00229  -0.05727   0.00000  -0.05716   1.48500
    A5        1.55592   0.00025  -0.02975   0.00000  -0.02966   1.52626
    A6        1.57187  -0.00031   0.00216   0.00000   0.00154   1.57342
    A7        1.57582   0.00097   0.01005   0.00000   0.00928   1.58511
    A8        1.56230   0.00191  -0.01700   0.00000  -0.01693   1.54537
    A9        1.56546  -0.00086  -0.01067   0.00000  -0.01018   1.55528
   A10        1.59323   0.00033   0.04486   0.00000   0.04524   1.63847
   A11        1.57080   0.00262   0.00001   0.00000  -0.00028   1.57052
   A12        1.55383  -0.00208  -0.03393   0.00000  -0.03377   1.52006
   A13        1.98446   0.00839   0.14766   0.00000   0.09432   2.07878
   A14        2.00963   0.00760   0.19800   0.00000   0.14526   2.15490
   A15        1.94374   0.01429   0.06621   0.00000   0.00708   1.95082
   A16        3.17875   0.00038   0.07431   0.00000   0.07424   3.25298
   A17        3.16499  -0.00216   0.04679   0.00000   0.04674   3.21172
   A18        3.13486  -0.00064  -0.01346   0.00000  -0.01579   3.11907
   A19        3.13810  -0.00010  -0.00699   0.00000  -0.00602   3.13208
   A20        3.13632   0.00176  -0.01055   0.00000  -0.01010   3.12622
   A21        3.12482   0.00057  -0.03354   0.00000  -0.03251   3.09231
    D1        2.08406   0.01776   0.17088   0.00000   0.17783   2.26189
    D2       -0.18857  -0.01892  -0.18559   0.00000  -0.18979  -0.37836
    D3       -1.05404   0.01785   0.17787   0.00000   0.18385  -0.87018
    D4        2.95652  -0.01882  -0.17860   0.00000  -0.18377   2.77275
    D5       -2.62599   0.01815   0.17556   0.00000   0.18170  -2.44429
    D6        1.38456  -0.01853  -0.18091   0.00000  -0.18592   1.19864
    D7        0.52146   0.01882   0.18726   0.00000   0.19050   0.71195
    D8       -1.75117  -0.01785  -0.16921   0.00000  -0.17713  -1.92830
         Item               Value     Threshold  Converged?
 Maximum Force            0.076091     0.000450     NO 
 RMS     Force            0.022430     0.000300     NO 
 Maximum Displacement     0.503916     0.001800     NO 
 RMS     Displacement     0.178329     0.001200     NO 
 Predicted change in Energy=-3.191865D-02
 GradGradGradGradGradGradGradGradGradGradGradGradGradGradGradGradGradGrad

                          Input orientation:                          
 ---------------------------------------------------------------------
 Center     Atomic      Atomic             Coordinates (Angstroms)
 Number     Number       Type             X           Y           Z
 ---------------------------------------------------------------------
      1         78           0       -0.374673    0.412076    0.053447
      2         17           0       -0.728810    2.803437    0.064268
      3         35           0       -0.284938   -2.120616    0.058511
      4          7           0        1.825885    0.392078    0.111721
      5          8           0        2.391587   -0.300023    0.943050
      6          8           0        2.516190    1.334064   -0.237766
      7         17           0       -0.273806    0.417150   -2.346332
      8         17           0       -0.600794    0.443344    2.450856
      9         35           0       -2.899915    0.257964   -0.053719
 ---------------------------------------------------------------------
                    Distance matrix (angstroms):
                    1          2          3          4          5
     1  Pt   0.000000
     2  Cl   2.417464   0.000000
     3  Br   2.534286   4.944021   0.000000
     4  N    2.201421   3.513313   3.282078   0.000000
     5  O    2.991768   4.487828   3.355704   1.220709   0.000000
     6  O    3.048271   3.574956   4.457456   1.219015   2.019924
     7  Cl   2.401903   3.422337   3.496233   3.232856   4.294029
     8  Cl   2.408252   3.358902   3.520933   3.370898   3.432261
     9  Br   2.532209   3.347693   3.536713   4.730597   5.413399
                    6          7          8          9
     6  O    0.000000
     7  Cl   3.615364   0.000000
     8  Cl   4.211610   4.808391   0.000000
     9  Br   5.525039   3.489679   3.404883   0.000000
 Stoichiometry    Br2Cl3NO2Pt(2-)
 Framework group  C1[X(Br2Cl3NO2Pt)]
 Deg. of freedom    21
 Full point group                 C1      NOp   1
 Largest Abelian subgroup         C1      NOp   1
 Largest concise Abelian subgroup C1      NOp   1
                         Standard orientation:                         
 ---------------------------------------------------------------------
 Center     Atomic      Atomic             Coordinates (Angstroms)
 Number     Number       Type             X           Y           Z
 ---------------------------------------------------------------------
      1         78           0        0.104344   -0.253207    0.007018
      2         17           0       -0.658789   -2.543844   -0.114403
      3         35           0        0.633090    2.223418    0.103794
      4          7           0        2.274380   -0.618574    0.067881
      5          8           0        3.000303   -0.013398   -0.704730
      6          8           0        2.768360   -1.676716    0.417618
      7         17           0        0.059570   -0.343861    2.406792
      8         17           0        0.019539   -0.176370   -2.398514
      9         35           0       -2.357497    0.339162   -0.015837
 ---------------------------------------------------------------------
 Rotational constants (GHZ):      0.4557366      0.4067282      0.3325363
 Basis read from rwf:  (5D, 7F)
 Pseudo-potential data read from rwf file.
 There are   196 symmetry adapted cartesian basis functions of A   symmetry.
 There are   182 symmetry adapted basis functions of A   symmetry.
   182 basis functions,   389 primitive gaussians,   196 cartesian basis functions
    82 alpha electrons       82 beta electrons
       nuclear repulsion energy      1801.6494548602 Hartrees.
 NAtoms=    9 NActive=    9 NUniq=    9 SFac= 1.00D+00 NAtFMM=   60 NAOKFM=F Big=F
 Integral buffers will be    131072 words long.
 Raffenetti 2 integral format.
 Two-electron integral symmetry is turned on.
 ------------------------------------------------------------------------------
 Polarizable Continuum Model (PCM)
 =================================
 Model                : PCM (using non-symmetric T matrix).
 Atomic radii         : UFF (Universal Force Field).
 Polarization charges : Total charges.
 Charge compensation  : None.
 Solution method      : On-the-fly selection.
 Cavity type          : Scaled VdW (van der Waals Surface) (Alpha=1.100).
 Cavity algorithm     : GePol (No added spheres)
                        Default sphere list used, NSphG=    9.
                        Lebedev-Laikov grids with approx.  5.0 points / Ang**2.
                        Smoothing algorithm: Karplus/York (Gamma=1.0000).
                        Polarization charges: spherical gaussians, with
                                              point-specific exponents (IZeta= 3).
                        Self-potential: point-specific (ISelfS= 7).
                        Self-field    : sphere-specific E.n sum rule (ISelfD= 2).
 1st derivatives      : Analytical E(r).r(x)/FMM algorithm (CHGder, D1EAlg=3).
                        Cavity 1st derivative terms included.
 Solvent              : Water, Eps=  78.355300 Eps(inf)=   1.777849
 ------------------------------------------------------------------------------
 Spheres list:
 ISph  on   Nord     Re0    Alpha      Xe            Ye            Ze
    1  Pt      1    1.3770  1.100      0.104344     -0.253207      0.007018
    2  Cl      2    1.9735  1.100     -0.658789     -2.543844     -0.114403
    3  Br      3    2.0945  1.100      0.633090      2.223418      0.103794
    4   N      4    1.8300  1.100      2.274380     -0.618574      0.067881
    5   O      5    1.7500  1.100      3.000303     -0.013398     -0.704730
    6   O      6    1.7500  1.100      2.768360     -1.676716      0.417618
    7  Cl      7    1.9735  1.100      0.059570     -0.343861      2.406792
    8  Cl      8    1.9735  1.100      0.019539     -0.176370     -2.398514
    9  Br      9    2.0945  1.100     -2.357497      0.339162     -0.015837
 ------------------------------------------------------------------------------
 One-electron integrals computed using PRISM.
   1 Symmetry operations used in ECPInt.
 ECPInt:  NShTT=    2775 NPrTT=   14060 LenC2=    2522 LenP2D=    8872.
 LDataN:  DoStor=T MaxTD1= 6 Len=  172
 NBasis=   182 RedAO= T EigKep=  6.00D-03  NBF=   182
 NBsUse=   182 1.00D-06 EigRej= -1.00D+00 NBFU=   182
 Defaulting to unpruned grid for atomic number  78.
 Initial guess from the checkpoint file:  "/home/scr/diego/Gau-11805.chk"
 B after Tr=     0.000000    0.000000    0.000000
         Rot=    0.991468    0.001562   -0.038210    0.124618 Ang=  14.98 deg.
 ExpMin= 2.90D-02 ExpMax= 1.13D+05 ExpMxC= 1.70D+04 IAcc=3 IRadAn=         5 AccDes= 0.00D+00
 Harris functional with IExCor=  402 and IRadAn=       5 diagonalized for initial guess.
 HarFok:  IExCor=  402 AccDes= 0.00D+00 IRadAn=         5 IDoV= 1 UseB2=F ITyADJ=14
 ICtDFT=  3500011 ScaDFX=  1.000000  1.000000  1.000000  1.000000
 Defaulting to unpruned grid for atomic number  78.
 Defaulting to unpruned grid for atomic number  78.
 Defaulting to unpruned grid for atomic number  78.
 Defaulting to unpruned grid for atomic number  78.
 Defaulting to unpruned grid for atomic number  78.
 Defaulting to unpruned grid for atomic number  78.
 Defaulting to unpruned grid for atomic number  78.
 Defaulting to unpruned grid for atomic number  78.
 FoFCou: FMM=F IPFlag=           0 FMFlag=      100000 FMFlg1=           0
         NFxFlg=           0 DoJE=T BraDBF=F KetDBF=T FulRan=T
         wScrn=  0.000000 ICntrl=     500 IOpCl=  0 I1Cent=   200000004 NGrid=           0
         NMat0=    1 NMatS0=      1 NMatT0=    0 NMatD0=    1 NMtDS0=    0 NMtDT0=    0
 Petite list used in FoFCou.
 Keep R1 ints in memory in canonical form, NReq=144565601.
 Requested convergence on RMS density matrix=1.00D-08 within 128 cycles.
 Requested convergence on MAX density matrix=1.00D-06.
 Requested convergence on             energy=1.00D-06.
 No special actions if energy rises.
 Defaulting to unpruned grid for atomic number  78.
 Defaulting to unpruned grid for atomic number  78.
 Defaulting to unpruned grid for atomic number  78.
 Defaulting to unpruned grid for atomic number  78.
 Defaulting to unpruned grid for atomic number  78.
 Defaulting to unpruned grid for atomic number  78.
 Defaulting to unpruned grid for atomic number  78.
 Defaulting to unpruned grid for atomic number  78.
 Inv3:  Mode=1 IEnd=     7188912.
 Iteration    1 A*A^-1 deviation from unit magnitude is 6.44D-15 for   1157.
 Iteration    1 A*A^-1 deviation from orthogonality  is 3.07D-15 for   1283   1006.
 Iteration    1 A^-1*A deviation from unit magnitude is 6.00D-15 for    784.
 Iteration    1 A^-1*A deviation from orthogonality  is 3.98D-14 for   1009    365.
 Error on total polarization charges =  0.01425
 SCF Done:  E(RB3LYP) =  -6852.51549452     A.U. after   16 cycles
            NFock= 16  Conv=0.14D-08     -V/T= 2.0136
   1 Symmetry operations used in ECPInt.
 ECPInt:  NShTT=    2775 NPrTT=   14060 LenC2=    2522 LenP2D=    8872.
 LDataN:  DoStor=T MaxTD1= 7 Len=  274
 D1PCM: PCM CHGder 1st derivatives, ID1Alg=3 FixD1E=F DoIter=F DoCFld=F I1PDM=0.
 Calling FoFJK, ICntrl=      2127 FMM=F ISym2X=0 I1Cent= 0 IOpClX= 0 NMat=1 NMatS=1 NMatT=0.
 Defaulting to unpruned grid for atomic number  78.
 Defaulting to unpruned grid for atomic number  78.
 Defaulting to unpruned grid for atomic number  78.
 Defaulting to unpruned grid for atomic number  78.
 Defaulting to unpruned grid for atomic number  78.
 Defaulting to unpruned grid for atomic number  78.
 Defaulting to unpruned grid for atomic number  78.
 Defaulting to unpruned grid for atomic number  78.
 ***** Axes restored to original set *****
 -------------------------------------------------------------------
 Center     Atomic                   Forces (Hartrees/Bohr)
 Number     Number              X              Y              Z
 -------------------------------------------------------------------
      1       78           0.002391841   -0.009097523   -0.008712830
      2       17           0.007803993    0.004066669   -0.000493614
      3       35           0.002006835   -0.003144607   -0.000365882
      4        7           0.036142471    0.029664571    0.052213665
      5        8          -0.026065817   -0.051804267    0.009290109
      6        8          -0.021963291    0.031541179   -0.051294463
      7       17           0.002449001    0.000129195   -0.002329160
      8       17           0.005129262   -0.000574106    0.001984924
      9       35          -0.007894294   -0.000781111   -0.000292750
 -------------------------------------------------------------------
 Cartesian Forces:  Max     0.052213665 RMS     0.021799989

 GradGradGradGradGradGradGradGradGradGradGradGradGradGradGradGradGradGrad
 Berny optimization.
 Using GEDIIS/GDIIS optimizer.
 FormGI is forming the generalized inverse of G from B-inverse, IUseBI=4.
 Internal  Forces:  Max     0.072698293 RMS     0.017310970
 Search for a local minimum.
 Step number   3 out of a maximum of   47
 All quantities printed in internal units (Hartrees-Bohrs-Radians)
 Mixed Optimization -- RFO/linear search
 Update second derivatives using D2CorX and points    2    3
 ITU=  0  1  0
 Use linear search instead of GDIIS.
     Eigenvalues ---    0.00230   0.01371   0.08309   0.08374   0.12257
     Eigenvalues ---    0.12491   0.12624   0.12810   0.14457   0.16755
     Eigenvalues ---    0.19515   0.19774   0.21248   0.22001   0.22002
     Eigenvalues ---    0.24775   0.24997   0.25001   0.30533   0.52941
     Eigenvalues ---    0.59634
 RFO step:  Lambda=-4.51273908D-02 EMin= 2.30000612D-03
 Quartic linear search produced a step of -0.08213.
 Iteration  1 RMS(Cart)=  0.08302875 RMS(Int)=  0.01476572
 Iteration  2 RMS(Cart)=  0.01477175 RMS(Int)=  0.00368464
 Iteration  3 RMS(Cart)=  0.00023239 RMS(Int)=  0.00367797
 Iteration  4 RMS(Cart)=  0.00000004 RMS(Int)=  0.00367797
 Variable       Old X    -DE/DX   Delta X   Delta X   Delta X     New X
                                 (Linear)    (Quad)   (Total)
    R1        4.56835   0.00289  -0.01422   0.02003   0.00580   4.57415
    R2        4.78911   0.00320  -0.01079   0.02187   0.01108   4.80019
    R3        4.16008  -0.01169  -0.02187  -0.03198  -0.05385   4.10623
    R4        4.53894   0.00243  -0.01261   0.01913   0.00652   4.54546
    R5        4.55094   0.00148  -0.01327   0.01563   0.00236   4.55330
    R6        4.78518   0.00793  -0.01057   0.03784   0.02726   4.81244
    R7        2.30681   0.02365   0.01441   0.01444   0.02885   2.33566
    R8        2.30361   0.02661   0.01459   0.01857   0.03316   2.33677
    A1        1.72673  -0.01666  -0.00853  -0.07243  -0.08098   1.64575
    A2        1.57933  -0.00062  -0.00049  -0.00161  -0.00224   1.57709
    A3        1.53974   0.00242   0.00178   0.00917   0.00949   1.54922
    A4        1.48500   0.00975   0.00469   0.03302   0.03774   1.52274
    A5        1.52626   0.00494   0.00244   0.01234   0.01480   1.54106
    A6        1.57342  -0.00022  -0.00013  -0.00200  -0.00262   1.57080
    A7        1.58511  -0.00005  -0.00076   0.00223   0.00076   1.58586
    A8        1.54537   0.00193   0.00139   0.02681   0.02825   1.57362
    A9        1.55528   0.00052   0.00084  -0.00306  -0.00219   1.55310
   A10        1.63847  -0.00930  -0.00372  -0.04090  -0.04466   1.59381
   A11        1.57052   0.00278   0.00002   0.02188   0.02188   1.59240
   A12        1.52006   0.00587   0.00277   0.02145   0.02422   1.54428
   A13        2.07878  -0.03175  -0.00775  -0.03872  -0.05922   2.01956
   A14        2.15490  -0.04077  -0.01193  -0.06873  -0.09341   2.06148
   A15        1.95082   0.07270  -0.00058   0.26019   0.24678   2.19760
   A16        3.25298  -0.01172  -0.00610  -0.06009  -0.06618   3.18680
   A17        3.21172  -0.00691  -0.00384  -0.03942  -0.04324   3.16849
   A18        3.11907   0.00180   0.00130   0.00756   0.00725   3.12632
   A19        3.13208   0.00062   0.00049   0.00312   0.00400   3.13608
   A20        3.12622   0.00326   0.00083   0.01858   0.01942   3.14564
   A21        3.09231   0.00836   0.00267   0.04226   0.04510   3.13740
    D1        2.26189   0.01020  -0.01460   0.21335   0.19952   2.46141
    D2       -0.37836  -0.01020   0.01559  -0.22133  -0.20557  -0.58393
    D3       -0.87018   0.00958  -0.01510   0.21023   0.19552  -0.67467
    D4        2.77275  -0.01083   0.01509  -0.22444  -0.20957   2.56318
    D5       -2.44429   0.00990  -0.01492   0.21229   0.19830  -2.24599
    D6        1.19864  -0.01050   0.01527  -0.22238  -0.20679   0.99185
    D7        0.71195   0.01027  -0.01564   0.21510   0.19857   0.91052
    D8       -1.92830  -0.01014   0.01455  -0.21958  -0.20652  -2.13482
         Item               Value     Threshold  Converged?
 Maximum Force            0.072698     0.000450     NO 
 RMS     Force            0.017311     0.000300     NO 
 Maximum Displacement     0.250868     0.001800     NO 
 RMS     Displacement     0.092887     0.001200     NO 
 Predicted change in Energy=-3.392293D-02
 GradGradGradGradGradGradGradGradGradGradGradGradGradGradGradGradGradGrad

                          Input orientation:                          
 ---------------------------------------------------------------------
 Center     Atomic      Atomic             Coordinates (Angstroms)
 Number     Number       Type             X           Y           Z
 ---------------------------------------------------------------------
      1         78           0       -0.376396    0.401809    0.069053
      2         17           0       -0.625109    2.809529    0.073152
      3         35           0       -0.230488   -2.134144    0.071858
      4          7           0        1.791822    0.461986    0.198663
      5          8           0        2.309588   -0.394072    0.924419
      6          8           0        2.383436    1.392401   -0.361167
      7         17           0       -0.190598    0.409854   -2.329100
      8         17           0       -0.576263    0.429331    2.470095
      9         35           0       -2.915266    0.262779   -0.072936
 ---------------------------------------------------------------------
                    Distance matrix (angstroms):
                    1          2          3          4          5
     1  Pt   0.000000
     2  Cl   2.420535   0.000000
     3  Br   2.540149   4.959399   0.000000
     4  N    2.172922   3.371686   3.293283   0.000000
     5  O    2.929094   4.427207   3.194793   1.235978   0.000000
     6  O    2.963619   3.353838   4.410968   1.236563   2.202197
     7  Cl   2.405353   3.423165   3.498301   3.212832   4.181222
     8  Cl   2.409503   3.378323   3.527393   3.281508   3.375684
     9  Br   2.546635   3.428133   3.601977   4.719123   5.359596
                    6          7          8          9
     6  O    0.000000
     7  Cl   3.385825   0.000000
     8  Cl   4.207537   4.814705   0.000000
     9  Br   5.425437   3.540582   3.459144   0.000000
 Stoichiometry    Br2Cl3NO2Pt(2-)
 Framework group  C1[X(Br2Cl3NO2Pt)]
 Deg. of freedom    21
 Full point group                 C1      NOp   1
 Largest Abelian subgroup         C1      NOp   1
 Largest concise Abelian subgroup C1      NOp   1
                         Standard orientation:                         
 ---------------------------------------------------------------------
 Center     Atomic      Atomic             Coordinates (Angstroms)
 Number     Number       Type             X           Y           Z
 ---------------------------------------------------------------------
      1         78           0        0.079156   -0.249453   -0.009517
      2         17           0       -0.698400   -2.536694   -0.160943
      3         35           0        0.785513    2.186034    0.138192
      4          7           0        2.183384   -0.789602   -0.054842
      5          8           0        2.915680   -0.039080   -0.709135
      6          8           0        2.523222   -1.854259    0.474406
      7         17           0        0.133409   -0.410711    2.389811
      8         17           0        0.003445   -0.119513   -2.414322
      9         35           0       -2.369022    0.450220    0.037715
 ---------------------------------------------------------------------
 Rotational constants (GHZ):      0.4522239      0.4098864      0.3335787
 Basis read from rwf:  (5D, 7F)
 Pseudo-potential data read from rwf file.
 There are   196 symmetry adapted cartesian basis functions of A   symmetry.
 There are   182 symmetry adapted basis functions of A   symmetry.
   182 basis functions,   389 primitive gaussians,   196 cartesian basis functions
    82 alpha electrons       82 beta electrons
       nuclear repulsion energy      1799.3760236788 Hartrees.
 NAtoms=    9 NActive=    9 NUniq=    9 SFac= 1.00D+00 NAtFMM=   60 NAOKFM=F Big=F
 Integral buffers will be    131072 words long.
 Raffenetti 2 integral format.
 Two-electron integral symmetry is turned on.
 ------------------------------------------------------------------------------
 Polarizable Continuum Model (PCM)
 =================================
 Model                : PCM (using non-symmetric T matrix).
 Atomic radii         : UFF (Universal Force Field).
 Polarization charges : Total charges.
 Charge compensation  : None.
 Solution method      : On-the-fly selection.
 Cavity type          : Scaled VdW (van der Waals Surface) (Alpha=1.100).
 Cavity algorithm     : GePol (No added spheres)
                        Default sphere list used, NSphG=    9.
                        Lebedev-Laikov grids with approx.  5.0 points / Ang**2.
                        Smoothing algorithm: Karplus/York (Gamma=1.0000).
                        Polarization charges: spherical gaussians, with
                                              point-specific exponents (IZeta= 3).
                        Self-potential: point-specific (ISelfS= 7).
                        Self-field    : sphere-specific E.n sum rule (ISelfD= 2).
 1st derivatives      : Analytical E(r).r(x)/FMM algorithm (CHGder, D1EAlg=3).
                        Cavity 1st derivative terms included.
 Solvent              : Water, Eps=  78.355300 Eps(inf)=   1.777849
 ------------------------------------------------------------------------------
 Spheres list:
 ISph  on   Nord     Re0    Alpha      Xe            Ye            Ze
    1  Pt      1    1.3770  1.100      0.079156     -0.249453     -0.009517
    2  Cl      2    1.9735  1.100     -0.698400     -2.536694     -0.160943
    3  Br      3    2.0945  1.100      0.785513      2.186034      0.138192
    4   N      4    1.8300  1.100      2.183384     -0.789602     -0.054842
    5   O      5    1.7500  1.100      2.915680     -0.039080     -0.709135
    6   O      6    1.7500  1.100      2.523222     -1.854259      0.474406
    7  Cl      7    1.9735  1.100      0.133409     -0.410711      2.389811
    8  Cl      8    1.9735  1.100      0.003445     -0.119513     -2.414322
    9  Br      9    2.0945  1.100     -2.369022      0.450220      0.037715
 ------------------------------------------------------------------------------
 One-electron integrals computed using PRISM.
   1 Symmetry operations used in ECPInt.
 ECPInt:  NShTT=    2775 NPrTT=   14060 LenC2=    2523 LenP2D=    8872.
 LDataN:  DoStor=T MaxTD1= 6 Len=  172
 NBasis=   182 RedAO= T EigKep=  6.47D-03  NBF=   182
 NBsUse=   182 1.00D-06 EigRej= -1.00D+00 NBFU=   182
 Defaulting to unpruned grid for atomic number  78.
 Initial guess from the checkpoint file:  "/home/scr/diego/Gau-11805.chk"
 B after Tr=     0.000000    0.000000    0.000000
         Rot=    0.999616   -0.010835   -0.006845    0.024578 Ang=  -3.18 deg.
 ExpMin= 2.90D-02 ExpMax= 1.13D+05 ExpMxC= 1.70D+04 IAcc=3 IRadAn=         5 AccDes= 0.00D+00
 Harris functional with IExCor=  402 and IRadAn=       5 diagonalized for initial guess.
 HarFok:  IExCor=  402 AccDes= 0.00D+00 IRadAn=         5 IDoV= 1 UseB2=F ITyADJ=14
 ICtDFT=  3500011 ScaDFX=  1.000000  1.000000  1.000000  1.000000
 Defaulting to unpruned grid for atomic number  78.
 Defaulting to unpruned grid for atomic number  78.
 Defaulting to unpruned grid for atomic number  78.
 Defaulting to unpruned grid for atomic number  78.
 Defaulting to unpruned grid for atomic number  78.
 Defaulting to unpruned grid for atomic number  78.
 Defaulting to unpruned grid for atomic number  78.
 Defaulting to unpruned grid for atomic number  78.
 FoFCou: FMM=F IPFlag=           0 FMFlag=      100000 FMFlg1=           0
         NFxFlg=           0 DoJE=T BraDBF=F KetDBF=T FulRan=T
         wScrn=  0.000000 ICntrl=     500 IOpCl=  0 I1Cent=   200000004 NGrid=           0
         NMat0=    1 NMatS0=      1 NMatT0=    0 NMatD0=    1 NMtDS0=    0 NMtDT0=    0
 Petite list used in FoFCou.
 Keep R1 ints in memory in canonical form, NReq=144495419.
 Requested convergence on RMS density matrix=1.00D-08 within 128 cycles.
 Requested convergence on MAX density matrix=1.00D-06.
 Requested convergence on             energy=1.00D-06.
 No special actions if energy rises.
 Defaulting to unpruned grid for atomic number  78.
 Defaulting to unpruned grid for atomic number  78.
 Defaulting to unpruned grid for atomic number  78.
 Defaulting to unpruned grid for atomic number  78.
 Defaulting to unpruned grid for atomic number  78.
 Defaulting to unpruned grid for atomic number  78.
 Defaulting to unpruned grid for atomic number  78.
 Defaulting to unpruned grid for atomic number  78.
 Inv3:  Mode=1 IEnd=     6986028.
 Iteration    1 A*A^-1 deviation from unit magnitude is 6.22D-15 for   1066.
 Iteration    1 A*A^-1 deviation from orthogonality  is 4.67D-15 for   1501    630.
 Iteration    1 A^-1*A deviation from unit magnitude is 6.44D-15 for    195.
 Iteration    1 A^-1*A deviation from orthogonality  is 8.32D-12 for    370    345.
 Error on total polarization charges =  0.01439
 SCF Done:  E(RB3LYP) =  -6852.53615646     A.U. after   15 cycles
            NFock= 15  Conv=0.65D-08     -V/T= 2.0137
   1 Symmetry operations used in ECPInt.
 ECPInt:  NShTT=    2775 NPrTT=   14060 LenC2=    2523 LenP2D=    8872.
 LDataN:  DoStor=T MaxTD1= 7 Len=  274
 D1PCM: PCM CHGder 1st derivatives, ID1Alg=3 FixD1E=F DoIter=F DoCFld=F I1PDM=0.
 Calling FoFJK, ICntrl=      2127 FMM=F ISym2X=0 I1Cent= 0 IOpClX= 0 NMat=1 NMatS=1 NMatT=0.
 Defaulting to unpruned grid for atomic number  78.
 Defaulting to unpruned grid for atomic number  78.
 Defaulting to unpruned grid for atomic number  78.
 Defaulting to unpruned grid for atomic number  78.
 Defaulting to unpruned grid for atomic number  78.
 Defaulting to unpruned grid for atomic number  78.
 Defaulting to unpruned grid for atomic number  78.
 Defaulting to unpruned grid for atomic number  78.
 ***** Axes restored to original set *****
 -------------------------------------------------------------------
 Center     Atomic                   Forces (Hartrees/Bohr)
 Number     Number              X              Y              Z
 -------------------------------------------------------------------
      1       78           0.010861276   -0.000895183   -0.000954558
      2       17           0.004043273    0.001690249    0.000080296
      3       35          -0.000969983   -0.002573382   -0.000768169
      4        7           0.003691015    0.006834394    0.011655945
      5        8          -0.003558331    0.026411308   -0.022612953
      6        8          -0.009246796   -0.029326703    0.014742319
      7       17           0.001144328   -0.000337475   -0.001487988
      8       17           0.003274156   -0.000473006    0.001243927
      9       35          -0.009238937   -0.001330202   -0.001898819
 -------------------------------------------------------------------
 Cartesian Forces:  Max     0.029326703 RMS     0.010246154

 GradGradGradGradGradGradGradGradGradGradGradGradGradGradGradGradGradGrad
 Berny optimization.
 Using GEDIIS/GDIIS optimizer.
 FormGI is forming the generalized inverse of G from B-inverse, IUseBI=4.
 Internal  Forces:  Max     0.033132150 RMS     0.009079484
 Search for a local minimum.
 Step number   4 out of a maximum of   47
 All quantities printed in internal units (Hartrees-Bohrs-Radians)
 Mixed Optimization -- RFO/linear search
 Update second derivatives using D2CorX and points    3    4
 DE= -2.07D-02 DEPred=-3.39D-02 R= 6.09D-01
 TightC=F SS=  1.41D+00  RLast= 6.54D-01 DXNew= 8.4853D-01 1.9631D+00
 Trust test= 6.09D-01 RLast= 6.54D-01 DXMaxT set to 8.49D-01
 ITU=  1  0  1  0
 Use linear search instead of GDIIS.
     Eigenvalues ---    0.00230   0.01345   0.08445   0.08453   0.11549
     Eigenvalues ---    0.12442   0.12563   0.12653   0.14219   0.16753
     Eigenvalues ---    0.18585   0.19544   0.20944   0.21998   0.22003
     Eigenvalues ---    0.23219   0.24999   0.25001   0.27804   0.52942
     Eigenvalues ---    0.73733
 RFO step:  Lambda=-6.94798443D-03 EMin= 2.29878009D-03
 Quartic linear search produced a step of -0.03826.
 Iteration  1 RMS(Cart)=  0.05163727 RMS(Int)=  0.00232245
 Iteration  2 RMS(Cart)=  0.00232108 RMS(Int)=  0.00080772
 Iteration  3 RMS(Cart)=  0.00000350 RMS(Int)=  0.00080771
 Iteration  4 RMS(Cart)=  0.00000000 RMS(Int)=  0.00080771
 Variable       Old X    -DE/DX   Delta X   Delta X   Delta X     New X
                                 (Linear)    (Quad)   (Total)
    R1        4.57415   0.00127  -0.00022  -0.00024  -0.00046   4.57369
    R2        4.80019   0.00251  -0.00042   0.00660   0.00618   4.80637
    R3        4.10623  -0.00876   0.00206  -0.05101  -0.04895   4.05728
    R4        4.54546   0.00155  -0.00025   0.00045   0.00020   4.54566
    R5        4.55330   0.00099  -0.00009  -0.00210  -0.00219   4.55111
    R6        4.81244   0.00939  -0.00104   0.04170   0.04066   4.85310
    R7        2.33566  -0.03310  -0.00110  -0.04278  -0.04388   2.29178
    R8        2.33677  -0.03313  -0.00127  -0.04213  -0.04339   2.29337
    A1        1.64575  -0.01005   0.00310  -0.05811  -0.05500   1.59075
    A2        1.57709   0.00015   0.00009   0.00140   0.00128   1.57837
    A3        1.54922   0.00089  -0.00036   0.00893   0.00792   1.55714
    A4        1.52274   0.00578  -0.00144   0.02491   0.02346   1.54619
    A5        1.54106   0.00664  -0.00057   0.02510   0.02453   1.56558
    A6        1.57080  -0.00082   0.00010  -0.00838  -0.00843   1.56237
    A7        1.58586   0.00001  -0.00003   0.00004  -0.00005   1.58581
    A8        1.57362  -0.00236  -0.00108   0.00813   0.00704   1.58066
    A9        1.55310   0.00032   0.00008  -0.00882  -0.00861   1.54449
   A10        1.59381  -0.00536   0.00171  -0.03319  -0.03134   1.56248
   A11        1.59240  -0.00045  -0.00084   0.00900   0.00813   1.60053
   A12        1.54428   0.00541  -0.00093   0.03230   0.03138   1.57566
   A13        2.01956   0.01213   0.00227   0.03346   0.03306   2.05261
   A14        2.06148   0.00267   0.00357  -0.00318  -0.00227   2.05921
   A15        2.19760  -0.01445  -0.00944  -0.01516  -0.02727   2.17032
   A16        3.18680  -0.00341   0.00253  -0.03301  -0.03047   3.15633
[...]
 Translational            0.889              2.981             44.537
 Rotational               0.889              2.981             32.954
 Vibrational             17.355             33.240             44.961
 Vibration     1          0.597              1.971              4.282
 Vibration     2          0.600              1.962              3.854
 Vibration     3          0.601              1.957              3.694
 Vibration     4          0.606              1.944              3.326
 Vibration     5          0.607              1.940              3.250
 Vibration     6          0.611              1.927              3.004
 Vibration     7          0.613              1.918              2.866
 Vibration     8          0.614              1.916              2.841
 Vibration     9          0.616              1.911              2.776
 Vibration    10          0.618              1.903              2.678
 Vibration    11          0.628              1.869              2.349
 Vibration    12          0.638              1.840              2.132
 Vibration    13          0.668              1.745              1.659
 Vibration    14          0.683              1.700              1.500
 Vibration    15          0.689              1.684              1.449
 Vibration    16          0.693              1.671              1.410
 Vibration    17          0.716              1.607              1.240
 Vibration    18          0.962              1.024              0.443
                       Q            Log10(Q)             Ln(Q)
 Total Bot       0.200933D+13         12.303051         28.328822
 Total V=0       0.138325D+21         20.140899         46.376135
 Vib (Bot)       0.127283D-02         -2.895230         -6.666514
 Vib (Bot)    1  0.314724D+01          0.497930          1.146526
 Vib (Bot)    2  0.252578D+01          0.402395          0.926549
 Vib (Bot)    3  0.232461D+01          0.366351          0.843554
 Vib (Bot)    4  0.191920D+01          0.283120          0.651909
 Vib (Bot)    5  0.184380D+01          0.265713          0.611826
 Vib (Bot)    6  0.161773D+01          0.208907          0.481027
 Vib (Bot)    7  0.150194D+01          0.176653          0.406759
 Vib (Bot)    8  0.148218D+01          0.170902          0.393517
 Vib (Bot)    9  0.143044D+01          0.155468          0.357979
 Vib (Bot)   10  0.135612D+01          0.132298          0.304628
 Vib (Bot)   11  0.112926D+01          0.052793          0.121561
 Vib (Bot)   12  0.996432D+00         -0.001552         -0.003575
 Vib (Bot)   13  0.745858D+00         -0.127344         -0.293221
 Vib (Bot)   14  0.671142D+00         -0.173186         -0.398775
 Vib (Bot)   15  0.648233D+00         -0.188269         -0.433505
 Vib (Bot)   16  0.630893D+00         -0.200044         -0.460618
 Vib (Bot)   17  0.557688D+00         -0.253608         -0.583955
 Vib (Bot)   18  0.246284D+00         -0.608564         -1.401271
 Vib (V=0)       0.876230D+05          4.942618         11.380799
 Vib (V=0)    1  0.368671D+01          0.566639          1.304734
 Vib (V=0)    2  0.307479D+01          0.487816          1.123237
 Vib (V=0)    3  0.287778D+01          0.459057          1.057019
 Vib (V=0)    4  0.248326D+01          0.395023          0.909573
 Vib (V=0)    5  0.241039D+01          0.382087          0.879788
 Vib (V=0)    6  0.219324D+01          0.341086          0.785380
 Vib (V=0)    7  0.208298D+01          0.318685          0.733800
 Vib (V=0)    8  0.206425D+01          0.314762          0.724766
 Vib (V=0)    9  0.201530D+01          0.304341          0.700770
 Vib (V=0)   10  0.194536D+01          0.289000          0.665447
 Vib (V=0)   11  0.173500D+01          0.239299          0.551007
 Vib (V=0)   12  0.161484D+01          0.208130          0.479238
 Vib (V=0)   13  0.139794D+01          0.145490          0.335003
 Vib (V=0)   14  0.133692D+01          0.126105          0.290367
 Vib (V=0)   15  0.131866D+01          0.120133          0.276617
 Vib (V=0)   16  0.130500D+01          0.115611          0.266204
 Vib (V=0)   17  0.124901D+01          0.096566          0.222351
 Vib (V=0)   18  0.105736D+01          0.024225          0.055780
 Electronic      0.100000D+01          0.000000          0.000000
 Translational   0.444339D+09          8.647714         19.912098
 Rotational      0.355277D+07          6.550567         15.083238
 ***** Axes restored to original set *****
 -------------------------------------------------------------------
 Center     Atomic                   Forces (Hartrees/Bohr)
 Number     Number              X              Y              Z
 -------------------------------------------------------------------
      1       78          -0.000035565    0.000047829   -0.000029678
      2       17           0.000047853   -0.000000228    0.000059615
      3       35          -0.000032434   -0.000032101   -0.000018038
      4        7          -0.000013899   -0.000014370   -0.000062029
      5        8           0.000043021   -0.000028501   -0.000080904
      6        8          -0.000003304   -0.000030694   -0.000071717
      7       17          -0.000075490   -0.000011630    0.000020608
      8       17           0.000090612    0.000025477    0.000059057
      9       35          -0.000020794    0.000044219    0.000123087
 -------------------------------------------------------------------
 Cartesian Forces:  Max     0.000123087 RMS     0.000050325
 FormGI is forming the generalized inverse of G from B-inverse, IUseBI=4.

 GradGradGradGradGradGradGradGradGradGradGradGradGradGradGradGradGradGrad
 Berny optimization.
 Internal  Forces:  Max     0.000039657 RMS     0.000020827
 Search for a local minimum.
 Step number   1 out of a maximum of    2
 All quantities printed in internal units (Hartrees-Bohrs-Radians)
 Second derivative matrix not updated -- analytic derivatives used.
 ITU=  0
     Eigenvalues ---    0.00364   0.04402   0.05929   0.06052   0.06698
     Eigenvalues ---    0.07467   0.08118   0.08721   0.08982   0.09782
     Eigenvalues ---    0.10142   0.10736   0.11170   0.11765   0.12054
     Eigenvalues ---    0.13135   0.16372   0.20000   0.32204   0.59682
     Eigenvalues ---    0.85160
 Angle between quadratic step and forces=  20.30 degrees.
 Linear search not attempted -- first point.
 Iteration  1 RMS(Cart)=  0.00044687 RMS(Int)=  0.00000007
 Iteration  2 RMS(Cart)=  0.00000007 RMS(Int)=  0.00000001
 Variable       Old X    -DE/DX   Delta X   Delta X   Delta X     New X
                                 (Linear)    (Quad)   (Total)
    R1        4.58174  -0.00001   0.00000  -0.00015  -0.00015   4.58158
    R2        4.82511   0.00004   0.00000   0.00048   0.00048   4.82559
    R3        3.99069   0.00000   0.00000   0.00005   0.00005   3.99074
    R4        4.56269  -0.00001   0.00000  -0.00011  -0.00011   4.56257
    R5        4.56448   0.00003   0.00000   0.00035   0.00035   4.56482
    R6        4.94692   0.00001   0.00000   0.00002   0.00002   4.94694
    R7        2.29422   0.00001   0.00000   0.00001   0.00001   2.29423
    R8        2.29387   0.00000   0.00000  -0.00001  -0.00001   2.29387
    A1        1.55692  -0.00003   0.00000  -0.00026  -0.00026   1.55666
    A2        1.58594   0.00004   0.00000   0.00053   0.00053   1.58647
    A3        1.55978  -0.00004   0.00000  -0.00053  -0.00053   1.55925
    A4        1.57771   0.00002   0.00000   0.00021   0.00021   1.57792
    A5        1.57114   0.00001   0.00000  -0.00002  -0.00002   1.57112
    A6        1.55054  -0.00004   0.00000  -0.00050  -0.00050   1.55004
    A7        1.58685   0.00004   0.00000   0.00050   0.00050   1.58735
    A8        1.57744   0.00000   0.00000   0.00006   0.00006   1.57750
    A9        1.57085  -0.00002   0.00000  -0.00017  -0.00017   1.57068
   A10        1.56515  -0.00001   0.00000  -0.00002  -0.00002   1.56513
   A11        1.57475   0.00003   0.00000   0.00022   0.00022   1.57498
   A12        1.57246   0.00000   0.00000  -0.00004  -0.00004   1.57243
   A13        2.05774   0.00002   0.00000   0.00003   0.00003   2.05777
   A14        2.05556   0.00000   0.00000   0.00002   0.00002   2.05558
   A15        2.16986  -0.00002   0.00000  -0.00005  -0.00005   2.16981
   A16        3.12806  -0.00002   0.00000  -0.00028  -0.00028   3.12779
   A17        3.13463  -0.00001   0.00000  -0.00005  -0.00005   3.13458
   A18        3.14572   0.00000   0.00000  -0.00001  -0.00001   3.14571
   A19        3.14671   0.00000   0.00000  -0.00003  -0.00003   3.14667
   A20        3.14550   0.00001   0.00000   0.00005   0.00005   3.14555
   A21        3.14725   0.00002   0.00000   0.00019   0.00019   3.14743
    D1        2.31485  -0.00002   0.00000  -0.00041  -0.00041   2.31445
    D2       -0.81970  -0.00002   0.00000  -0.00040  -0.00040  -0.82010
    D3       -0.83185  -0.00002   0.00000  -0.00037  -0.00037  -0.83223
    D4        2.31678  -0.00002   0.00000  -0.00037  -0.00037   2.31642
    D5       -2.38239   0.00002   0.00000   0.00012   0.00012  -2.38227
    D6        0.76624   0.00002   0.00000   0.00013   0.00013   0.76637
    D7        0.75499   0.00002   0.00000   0.00012   0.00012   0.75512
    D8       -2.37956   0.00002   0.00000   0.00013   0.00013  -2.37942
         Item               Value     Threshold  Converged?
 Maximum Force            0.000040     0.000450     YES
 RMS     Force            0.000021     0.000300     YES
 Maximum Displacement     0.001270     0.001800     YES
 RMS     Displacement     0.000447     0.001200     YES
 Predicted change in Energy=-9.248787D-08
 Optimization completed.
    -- Stationary point found.
                           ----------------------------
                           !   Optimized Parameters   !
                           ! (Angstroms and Degrees)  !
 --------------------------                            --------------------------
 ! Name  Definition              Value          Derivative Info.                !
 --------------------------------------------------------------------------------
 ! R1    R(1,2)                  2.4246         -DE/DX =    0.0                 !
 ! R2    R(1,3)                  2.5533         -DE/DX =    0.0                 !
 ! R3    R(1,4)                  2.1118         -DE/DX =    0.0                 !
 ! R4    R(1,7)                  2.4145         -DE/DX =    0.0                 !
 ! R5    R(1,8)                  2.4154         -DE/DX =    0.0                 !
 ! R6    R(1,9)                  2.6178         -DE/DX =    0.0                 !
 ! R7    R(4,5)                  1.214          -DE/DX =    0.0                 !
 ! R8    R(4,6)                  1.2139         -DE/DX =    0.0                 !
 ! A1    A(2,1,4)               89.2051         -DE/DX =    0.0                 !
 ! A2    A(2,1,7)               90.8677         -DE/DX =    0.0                 !
 ! A3    A(2,1,8)               89.3688         -DE/DX =    0.0                 !
 ! A4    A(2,1,9)               90.3959         -DE/DX =    0.0                 !
 ! A5    A(3,1,4)               90.0197         -DE/DX =    0.0                 !
 ! A6    A(3,1,7)               88.8394         -DE/DX =    0.0                 !
 ! A7    A(3,1,8)               90.9198         -DE/DX =    0.0                 !
 ! A8    A(3,1,9)               90.3804         -DE/DX =    0.0                 !
 ! A9    A(4,1,7)               90.0031         -DE/DX =    0.0                 !
 ! A10   A(4,1,8)               89.6764         -DE/DX =    0.0                 !
 ! A11   A(7,1,9)               90.2267         -DE/DX =    0.0                 !
 ! A12   A(8,1,9)               90.0956         -DE/DX =    0.0                 !
 ! A13   A(1,4,5)              117.8998         -DE/DX =    0.0                 !
 ! A14   A(1,4,6)              117.7752         -DE/DX =    0.0                 !
 ! A15   A(5,4,6)              124.3237         -DE/DX =    0.0                 !
 ! A16   L(2,1,3,4,-1)         179.2248         -DE/DX =    0.0                 !
 ! A17   L(4,1,9,2,-1)         179.601          -DE/DX =    0.0                 !
 ! A18   L(7,1,8,2,-1)         180.2365         -DE/DX =    0.0                 !
 ! A19   L(2,1,3,4,-2)         180.2929         -DE/DX =    0.0                 !
 ! A20   L(4,1,9,2,-2)         180.2237         -DE/DX =    0.0                 !
 ! A21   L(7,1,8,2,-2)         180.3239         -DE/DX =    0.0                 !
 ! D1    D(2,1,4,5)            132.6312         -DE/DX =    0.0                 !
 ! D2    D(2,1,4,6)            -46.9652         -DE/DX =    0.0                 !
 ! D3    D(3,1,4,5)            -47.6617         -DE/DX =    0.0                 !
 ! D4    D(3,1,4,6)            132.7418         -DE/DX =    0.0                 !
 ! D5    D(7,1,4,5)           -136.501          -DE/DX =    0.0                 !
 ! D6    D(7,1,4,6)             43.9025         -DE/DX =    0.0                 !
 ! D7    D(8,1,4,5)             43.258          -DE/DX =    0.0                 !
 ! D8    D(8,1,4,6)           -136.3385         -DE/DX =    0.0                 !
 --------------------------------------------------------------------------------
 GradGradGradGradGradGradGradGradGradGradGradGradGradGradGradGradGradGrad

 1\1\GINC-NEQC17\Freq\RB3LYP\Gen\Br2Cl3N1O2Pt1(2-)\DIEGO\18-Aug-2021\0\
 \#N Geom=AllCheck Guess=TCheck SCRF=Check GenChk RB3LYP/ChkBas Freq\\E
 strutura 28\\-2,1\Pt,-0.3680280517,0.3871708209,0.07553652\Cl,-0.47163
 5936,2.8090285518,0.1236337897\Br,-0.2235516723,-2.1613460051,0.014430
 8296\N,1.7347105984,0.503341174,0.2324053139\O,2.2837408541,-0.2088909
 884,1.0480037228\O,2.3139028844,1.2841036492,-0.494515933\Cl,-0.189572
 9887,0.4060196797,-2.3322549587\Cl,-0.5325288942,0.3589168398,2.485178
 9313\Br,-2.976310944,0.2611302981,-0.1083804755\\Version=EM64L-G09RevD
 .01\State=1-A\HF=-6852.5410323\RMSD=3.424e-09\RMSF=5.033e-05\ZeroPoint
 =0.01704\Thermal=0.0304896\Dipole=-0.1234995,-0.8575472,-0.0330197\Dip
 oleDeriv=1.1955175,-0.0511823,-0.0107355,-0.0035665,1.3956907,0.118581
 5,-0.0125095,0.1201503,1.2330897,-0.1913312,0.0259848,-0.0233755,0.101
 1755,-1.5069083,-0.0375645,-0.008432,-0.0342776,-0.1638982,-0.1372415,
 0.0931738,0.0265643,-0.0001079,-1.2879025,-0.03284,0.0047754,-0.042531
 6,-0.1075925,3.2455366,0.3044295,0.1926006,0.2102837,1.3372182,-0.8883
 599,0.1871369,-0.8798206,1.3824629,-2.0296663,0.1837277,-0.4756278,0.3
 711319,-0.662683,0.4369471,-0.6458474,0.40213,-0.8058702,-2.0733252,-0
 .4896322,0.2335992,-0.6340859,-0.7758497,0.4134901,0.3985187,0.4347014
 ,-0.6771165,-0.1724117,0.021234,0.1004241,0.0041661,-0.1345784,0.01422
 99,0.0388681,0.0123386,-1.3092919,-0.191606,-0.0140779,0.0553411,-0.00
 24002,-0.144921,-0.0199937,0.1275542,-0.0043936,-1.3181038,-1.6454722,
 -0.0736574,-0.0987907,-0.0465967,-0.220066,-0.0044906,-0.0900645,-0.00
 82969,-0.2336796\Polar=219.3347206,1.8460524,209.7156177,2.9625678,-5.
 6178154,182.5493416\PG=C01 [X(Br2Cl3N1O2Pt1)]\NImag=0\\0.18350341,-0.0
 0236891,0.24238488,-0.00466250,-0.00976399,0.26030820,-0.01373837,0.00
 228490,0.00049941,0.01799691,0.00338219,-0.08222748,-0.00074698,-0.003
 94982,0.09649462,-0.00013406,-0.00131943,-0.01685388,-0.00180855,0.001
 63695,0.01561511,-0.01307514,0.00454288,-0.00004006,0.00312652,0.00066
 957,0.00002027,0.01456104,0.00321851,-0.06899132,-0.00058442,0.0007359
 9,-0.01062724,-0.00045725,-0.00208288,0.08652196,0.00059332,-0.0006039
 0,-0.01503389,0.00002814,-0.00052637,0.00330285,0.00104931,0.00225058,
 0.01320779,-0.06341693,0.00039636,-0.00047303,-0.00601116,0.00170155,0
 .00042350,-0.00415349,-0.00111433,-0.00087163,0.54392745,-0.00014823,-
 0.04379733,-0.01477715,0.00186789,-0.00109898,0.00173225,-0.00279283,-
 0.00120233,0.00097128,0.03078526,0.53787965,-0.00101809,-0.01461695,-0
 .04326571,0.00321687,0.00001034,-0.00070251,-0.00309793,-0.00055397,-0
 .00090321,0.02178678,-0.38848710,0.56411557,-0.00626721,0.01391825,-0.
 01786814,0.00091072,0.00027326,-0.00004757,0.00037612,-0.00156827,-0.0
 0005882,-0.23458753,0.13595956,-0.16626516,0.20568151,0.00346442,0.004
 44104,0.01045982,-0.00003547,0.00025669,-0.00057226,-0.00401607,-0.001
 39612,-0.00153648,0.12948697,-0.23031668,0.20136684,-0.14112560,0.2885
 3552,-0.00589556,0.01163136,0.00055962,-0.00087231,-0.00030221,0.00039
 485,0.00100490,-0.00060896,0.00014808,-0.16033774,0.20310897,-0.286513
 97,0.17078489,-0.29361782,0.35323378,-0.00733509,-0.01734168,0.0149314
 0,-0.00163738,0.00148145,0.00109787,0.00073518,-0.00040993,0.00001788,
 -0.24651074,-0.16579658,0.14473301,0.04893054,0.00750923,-0.00372588,0
 .21981475,-0.00602449,0.00176678,0.01152035,0.00468902,-0.00065311,-0.
 00157416,0.00021179,0.00008574,-0.00047652,-0.16067885,-0.26686668,0.1
 9839289,-0.00747184,-0.06099216,0.08261095,0.17496225,0.32668400,0.003
 59441,0.01002689,0.00394427,-0.00101311,-0.00013733,-0.00025877,0.0007
 3068,-0.00022438,0.00042942,0.13943942,0.19762126,-0.23876287,0.011758
 13,0.08500735,-0.06615846,-0.15385474,-0.28878966,0.30219730,-0.015284
 50,-0.00028830,0.00699695,0.00050148,-0.00009625,-0.00022055,0.0001699
 0,0.00026596,-0.00021282,-0.00478704,-0.00404309,-0.00192316,0.0007389
 1,0.00112181,-0.00009131,0.00030398,0.00117861,-0.00497040,0.01861360,
 0.00040341,-0.01796535,0.00217423,-0.00013905,-0.00075989,-0.00515191,
 -0.00018998,-0.00275716,0.00514432,-0.00125850,-0.00106316,0.00163526,
 0.00018036,0.00057390,-0.00059433,-0.00102283,0.00042208,-0.00254348,0
 .00187870,0.01773830,0.00538301,0.00225278,-0.08619493,-0.00062706,-0.
 00285210,-0.00090616,0.00016728,0.00272196,-0.00063171,-0.00117925,-0.
 00067770,-0.00060398,-0.00037895,-0.00006182,0.00002752,-0.00170550,-0
 .00036940,-0.00102453,-0.00504555,-0.00069645,0.10023875,-0.01450010,0
 .00007480,0.00312246,0.00076965,-0.00090579,-0.00005639,0.00028330,-0.
 00114520,-0.00111238,-0.00557015,0.00324603,0.00134404,-0.00097088,-0.
 00066734,0.00546272,0.00076715,-0.00094252,0.00017605,0.00361787,-0.00
 000922,0.00110857,0.01794705,-0.00041330,-0.01791126,0.00103632,-0.000
 92838,-0.00074408,0.00590465,-0.00045458,-0.00019563,-0.00469890,0.000
 22586,-0.00046198,0.00145407,0.00150820,-0.00060937,-0.00114623,0.0000
 1148,0.00037723,-0.00050296,0.00000943,0.00393153,-0.00021614,0.000095
 96,0.01456476,0.00462915,0.00168700,-0.08585753,-0.00019176,0.00300413
 ,-0.00125023,-0.00002111,-0.00180591,-0.00113406,0.00043782,-0.0002943
 3,-0.00028632,0.00173521,-0.00066596,-0.00078430,0.00059124,-0.0001271
 1,0.00005023,0.00092632,0.00003147,-0.01092261,-0.00416443,-0.00175412
 ,0.10221626,-0.04988606,-0.00121831,-0.00250650,-0.00191836,-0.0025561
 7,0.00072548,-0.00202343,0.00210015,0.00056699,0.02110960,0.00092198,0
 .00122365,-0.01481219,0.00426203,-0.00632971,-0.01506838,-0.00592399,0
 .00413956,-0.00387420,0.00015711,0.00227744,-0.00234388,-0.00005469,-0
 .00394246,0.06881690,-0.00151360,-0.01769996,0.00068183,-0.00452509,-0
 .00064052,-0.00019884,0.00411208,-0.00143791,-0.00052400,0.00045569,0.
 00692749,0.00079862,-0.00167394,-0.00049281,-0.00108173,0.00060659,-0.
 00082389,-0.00045768,-0.00002688,-0.00012025,-0.00010113,0.00025327,0.
 00104881,-0.00007516,0.00231189,0.01323905,-0.00248968,0.00070625,-0.0
 1760615,0.00076837,-0.00008643,0.00065874,0.00018665,-0.00073763,0.000
 61472,0.00077412,0.00080253,0.00692299,0.00034041,-0.00037967,-0.00090
 712,-0.00208528,-0.00118733,-0.00041658,0.00454051,0.00000089,0.000017
 65,-0.00588065,-0.00007669,-0.00203143,0.00384555,0.00095808,0.0127471
 8\\0.00003556,-0.00004783,0.00002968,-0.00004785,0.00000023,-0.0000596
 1,0.00003243,0.00003210,0.00001804,0.00001390,0.00001437,0.00006203,-0
 .00004302,0.00002850,0.00008090,0.00000330,0.00003069,0.00007172,0.000
 07549,0.00001163,-0.00002061,-0.00009061,-0.00002548,-0.00005906,0.000
 02079,-0.00004422,-0.00012309\\\@


 WHEN ALL ELSE FAILS, TRY THE BOSS'S SUGGESTION.
 Job cpu time:       0 days  0 hours 12 minutes 34.3 seconds.
 File lengths (MBytes):  RWF=     98 Int=      0 D2E=      0 Chk=      7 Scr=      1
 Normal termination of Gaussian 09 at Wed Aug 18 03:59:51 2021.
