 Entering Gaussian System, Link 0=g09
 Input=estrutura29_D2O.com
 Output=estrutura29_D2O.log
 Initial command:
 /home/scr/programs/g09/l1.exe "/home/scr/diego/Gau-13007.inp" -scrdir="/home/scr/diego/"
 Entering Link 1 = /home/scr/programs/g09/l1.exe PID=     13009.
  
 Copyright (c) 1988,1990,1992,1993,1995,1998,2003,2009,2013,
            Gaussian, Inc.  All Rights Reserved.
  
 This is part of the Gaussian(R) 09 program.  It is based on
 the Gaussian(R) 03 system (copyright 2003, Gaussian, Inc.),
 the Gaussian(R) 98 system (copyright 1998, Gaussian, Inc.),
 the Gaussian(R) 94 system (copyright 1995, Gaussian, Inc.),
 the Gaussian 92(TM) system (copyright 1992, Gaussian, Inc.),
 the Gaussian 90(TM) system (copyright 1990, Gaussian, Inc.),
 the Gaussian 88(TM) system (copyright 1988, Gaussian, Inc.),
 the Gaussian 86(TM) system (copyright 1986, Carnegie Mellon
 University), and the Gaussian 82(TM) system (copyright 1983,
 Carnegie Mellon University). Gaussian is a federally registered
 trademark of Gaussian, Inc.
  
 This software contains proprietary and confidential information,
 including trade secrets, belonging to Gaussian, Inc.
  
 This software is provided under written license and may be
 used, copied, transmitted, or stored only in accord with that
 written license.
  
 The following legend is applicable only to US Government
 contracts under FAR:
  
                    RESTRICTED RIGHTS LEGEND
  
 Use, reproduction and disclosure by the US Government is
 subject to restrictions as set forth in subparagraphs (a)
 and (c) of the Commercial Computer Software - Restricted
 Rights clause in FAR 52.227-19.
  
 Gaussian, Inc.
 340 Quinnipiac St., Bldg. 40, Wallingford CT 06492
  
  
 ---------------------------------------------------------------
 Warning -- This program may not be used in any manner that
 competes with the business of Gaussian, Inc. or will provide
 assistance to any competitor of Gaussian, Inc.  The licensee
 of this program is prohibited from giving any competitor of
 Gaussian, Inc. access to this program.  By using this program,
 the user acknowledges that Gaussian, Inc. is engaged in the
 business of creating and licensing software in the field of
 computational chemistry and represents and warrants to the
 licensee that it is not a competitor of Gaussian, Inc. and that
 it will not use this program in any manner prohibited above.
 ---------------------------------------------------------------
  

 Cite this work as:
 Gaussian 09, Revision D.01,
 M. J. Frisch, G. W. Trucks, H. B. Schlegel, G. E. Scuseria, 
 M. A. Robb, J. R. Cheeseman, G. Scalmani, V. Barone, B. Mennucci, 
 G. A. Petersson, H. Nakatsuji, M. Caricato, X. Li, H. P. Hratchian, 
 A. F. Izmaylov, J. Bloino, G. Zheng, J. L. Sonnenberg, M. Hada, 
 M. Ehara, K. Toyota, R. Fukuda, J. Hasegawa, M. Ishida, T. Nakajima, 
 Y. Honda, O. Kitao, H. Nakai, T. Vreven, J. A. Montgomery, Jr., 
 J. E. Peralta, F. Ogliaro, M. Bearpark, J. J. Heyd, E. Brothers, 
 K. N. Kudin, V. N. Staroverov, T. Keith, R. Kobayashi, J. Normand, 
 K. Raghavachari, A. Rendell, J. C. Burant, S. S. Iyengar, J. Tomasi, 
 M. Cossi, N. Rega, J. M. Millam, M. Klene, J. E. Knox, J. B. Cross, 
 V. Bakken, C. Adamo, J. Jaramillo, R. Gomperts, R. E. Stratmann, 
 O. Yazyev, A. J. Austin, R. Cammi, C. Pomelli, J. W. Ochterski, 
 R. L. Martin, K. Morokuma, V. G. Zakrzewski, G. A. Voth, 
 P. Salvador, J. J. Dannenberg, S. Dapprich, A. D. Daniels, 
 O. Farkas, J. B. Foresman, J. V. Ortiz, J. Cioslowski, 
 and D. J. Fox, Gaussian, Inc., Wallingford CT, 2013.
 
 ******************************************
 Gaussian 09:  EM64L-G09RevD.01 24-Apr-2013
                18-Aug-2021 
 ******************************************
 %mem=15gb
 %nproc=8
 Will use up to    8 processors via shared memory.
 ------------------------------------------------------------
 #b3lyp/gen pseudo=read opt freq=noraman scrf=(solvent=water)
 ------------------------------------------------------------
 1/14=-1,18=20,19=15,26=3,38=1/1,3;
 2/9=110,12=2,17=6,18=5,40=1/2;
 3/5=7,11=2,16=1,17=8,25=1,30=1,70=2201,71=1,72=1,74=-5/1,2,3;
 4//1;
 5/5=2,38=5,53=1/2;
 6/7=2,8=2,9=2,10=2,28=1/1;
 7//1,2,3,16;
 1/14=-1,18=20,19=15,26=3/3(2);
 2/9=110/2;
 99//99;
 2/9=110/2;
 3/5=7,6=1,11=2,16=1,17=8,25=1,30=1,70=2205,71=1,72=1,74=-5,82=7/1,2,3;
 4/5=5,16=3,69=1/1;
 5/5=2,38=5,53=1/2;
 7//1,2,3,16;
 1/14=-1,18=20,19=15,26=3/3(-5);
 2/9=110/2;
 6/7=2,8=2,9=2,10=2,19=2,28=1/1;
 99/9=1/99;
 ------------
 Estrutura 29
 ------------
 Symbolic Z-matrix:
 Charge = -2 Multiplicity = 1
 Pt                   -0.31955   0.33835   0. 
 Cl                   -0.31955   2.61835   0. 
 Cl                   -0.31955   0.33835  -2.28 
 Br                   -2.74955   0.33835   0. 
 Cl                    1.67045   0.33835   0. 
 Br                   -0.31955   0.33835   2.43 
 N                    -0.31955  -1.65165   0. 
 O                    -0.66855  -2.10499  -1.23381 
 O                     0.92346  -2.10499   0.31466 
 

 GradGradGradGradGradGradGradGradGradGradGradGradGradGradGradGradGradGrad
 Berny optimization.
 Initialization pass.
                           ----------------------------
                           !    Initial Parameters    !
                           ! (Angstroms and Degrees)  !
 --------------------------                            --------------------------
 ! Name  Definition              Value          Derivative Info.                !
 --------------------------------------------------------------------------------
 ! R1    R(1,2)                  2.28           estimate D2E/DX2                !
 ! R2    R(1,3)                  2.28           estimate D2E/DX2                !
 ! R3    R(1,4)                  2.43           estimate D2E/DX2                !
 ! R4    R(1,5)                  1.99           estimate D2E/DX2                !
 ! R5    R(1,6)                  2.43           estimate D2E/DX2                !
 ! R6    R(1,7)                  1.99           estimate D2E/DX2                !
 ! R7    R(7,8)                  1.36           estimate D2E/DX2                !
 ! R8    R(7,9)                  1.36           estimate D2E/DX2                !
 ! A1    A(2,1,3)               90.0            estimate D2E/DX2                !
 ! A2    A(2,1,4)               90.0            estimate D2E/DX2                !
 ! A3    A(2,1,5)               90.0            estimate D2E/DX2                !
 ! A4    A(2,1,6)               90.0            estimate D2E/DX2                !
 ! A5    A(3,1,4)               90.0            estimate D2E/DX2                !
 ! A6    A(3,1,5)               90.0            estimate D2E/DX2                !
 ! A7    A(3,1,7)               90.0            estimate D2E/DX2                !
 ! A8    A(4,1,6)               90.0            estimate D2E/DX2                !
 ! A9    A(4,1,7)               90.0            estimate D2E/DX2                !
 ! A10   A(5,1,6)               90.0            estimate D2E/DX2                !
 ! A11   A(5,1,7)               90.0            estimate D2E/DX2                !
 ! A12   A(6,1,7)               90.0            estimate D2E/DX2                !
 ! A13   A(1,7,8)              109.4712         estimate D2E/DX2                !
 ! A14   A(1,7,9)              109.4712         estimate D2E/DX2                !
 ! A15   A(8,7,9)              109.4713         estimate D2E/DX2                !
 ! A16   L(2,1,7,3,-1)         180.0            estimate D2E/DX2                !
 ! A17   L(3,1,6,2,-1)         180.0            estimate D2E/DX2                !
 ! A18   L(4,1,5,2,-1)         180.0            estimate D2E/DX2                !
 ! A19   L(2,1,7,3,-2)         180.0            estimate D2E/DX2                !
 ! A20   L(3,1,6,2,-2)         180.0            estimate D2E/DX2                !
 ! A21   L(4,1,5,2,-2)         180.0            estimate D2E/DX2                !
 ! D1    D(3,1,7,8)            -15.7942         estimate D2E/DX2                !
 ! D2    D(3,1,7,9)            104.2058         estimate D2E/DX2                !
 ! D3    D(4,1,7,8)             74.2058         estimate D2E/DX2                !
 ! D4    D(4,1,7,9)           -165.7942         estimate D2E/DX2                !
 ! D5    D(5,1,7,8)           -105.7942         estimate D2E/DX2                !
 ! D6    D(5,1,7,9)             14.2058         estimate D2E/DX2                !
 ! D7    D(6,1,7,8)            164.2058         estimate D2E/DX2                !
 ! D8    D(6,1,7,9)            -75.7942         estimate D2E/DX2                !
 --------------------------------------------------------------------------------
 Trust Radius=3.00D-01 FncErr=1.00D-07 GrdErr=1.00D-06
 Number of steps in this run=     47 maximum allowed number of steps=    100.
 GradGradGradGradGradGradGradGradGradGradGradGradGradGradGradGradGradGrad

                          Input orientation:                          
 ---------------------------------------------------------------------
 Center     Atomic      Atomic             Coordinates (Angstroms)
 Number     Number       Type             X           Y           Z
 ---------------------------------------------------------------------
      1         78           0       -0.319549    0.338346    0.000000
      2         17           0       -0.319549    2.618346    0.000000
      3         17           0       -0.319549    0.338346   -2.280000
      4         35           0       -2.749549    0.338346    0.000000
      5         17           0        1.670451    0.338346    0.000000
      6         35           0       -0.319549    0.338346    2.430000
      7          7           0       -0.319549   -1.651654    0.000000
      8          8           0       -0.668547   -2.104987   -1.233811
      9          8           0        0.923462   -2.104987    0.314664
 ---------------------------------------------------------------------
                    Distance matrix (angstroms):
                    1          2          3          4          5
     1  Pt   0.000000
     2  Cl   2.280000   0.000000
     3  Cl   2.280000   3.224407   0.000000
     4  Br   2.430000   3.332161   3.332161   0.000000
     5  Cl   1.990000   3.026301   3.026301   4.420000   0.000000
     6  Br   2.430000   3.332161   4.710000   3.436539   3.140860
     7  N    1.990000   4.270000   3.026301   3.140860   2.814285
     8  O    2.759341   4.894279   2.680707   3.438420   3.600428
     9  O    2.759341   4.894279   3.774551   4.422657   2.574273
                    6          7          8          9
     6  Br   0.000000
     7  N    3.140860   0.000000
     8  O    4.417600   1.360000   0.000000
     9  O    3.462600   1.360000   2.220871   0.000000
 Stoichiometry    Br2Cl3NO2Pt(2-)
 Framework group  C1[X(Br2Cl3NO2Pt)]
 Deg. of freedom    21
 Full point group                 C1      NOp   1
 Largest Abelian subgroup         C1      NOp   1
 Largest concise Abelian subgroup C1      NOp   1
                         Standard orientation:                         
 ---------------------------------------------------------------------
 Center     Atomic      Atomic             Coordinates (Angstroms)
 Number     Number       Type             X           Y           Z
 ---------------------------------------------------------------------
      1         78           0        0.084955   -0.207083    0.155541
      2         17           0       -0.188490    0.570139    2.281465
      3         17           0        2.200533   -0.880844    0.673978
      4         35           0        0.942871    1.961575   -0.526955
      5         17           0       -0.617618   -1.983063    0.714458
      6         35           0       -2.169806    0.511004   -0.397003
      7          7           0        0.323620   -0.885448   -1.699980
      8          8           0        1.646039   -1.093121   -1.940150
      9          8           0       -0.352830   -2.056325   -1.845113
 ---------------------------------------------------------------------
 Rotational constants (GHZ):      0.4976229      0.4665617      0.3945848
 General basis read from cards:  (5D, 7F)
 ======================================================================================================
                                       Pseudopotential Parameters
 ======================================================================================================
  Center     Atomic      Valence      Angular      Power
  Number     Number     Electrons     Momentum     of R      Exponent        Coefficient   SO-Coeffient
 ======================================================================================================
    1         78           18
                                      G and up 
                                                     1      728.9394056       -0.16192680    0.00000000
                                                     2      320.6567800    -1320.28738520    0.00000000
                                                     2       52.8680174     -298.31781350    0.00000000
                                                     2       12.0280128      -87.58370650    0.00000000
                                                     2        3.5238913       -8.14932740    0.00000000
                                      S - G
                                                     0      409.4437358        2.73342180    0.00000000
                                                     1      274.5419231       59.70243290    0.00000000
                                                     2      127.5658570      891.45895500    0.00000000
                                                     2       32.9036631      368.44676560    0.00000000
                                                     2        5.0593880      238.02630900    0.00000000
                                                     2        4.1506556     -107.05564540    0.00000000
                                      P - G
                                                     0      466.1728892        1.88785680    0.00000000
                                                     1      120.7888259       76.01386290    0.00000000
                                                     2       36.4118791      343.55111160    0.00000000
                                                     2        5.6985408      119.49117860    0.00000000
                                      D - G
                                                     0      249.5650763        2.93436780    0.00000000
                                                     1      126.6678585       59.33065710    0.00000000
                                                     2       63.1430586      452.44451940    0.00000000
                                                     2       17.9059470      210.47694790    0.00000000
                                                     2        4.2239373       58.62541120    0.00000000
                                      F - G
                                                     0      121.8158799        3.95342530    0.00000000
                                                     1       60.8757030       53.85551820    0.00000000
                                                     2       31.4767147      247.43051330    0.00000000
                                                     2        9.8811751      127.81879760    0.00000000
                                                     2        2.7319874       15.37720460    0.00000000
    2         17
                                   No pseudopotential on this center.
    3         17
                                   No pseudopotential on this center.
    4         35
                                   No pseudopotential on this center.
    5         17
                                   No pseudopotential on this center.
    6         35
                                   No pseudopotential on this center.
    7          7
                                   No pseudopotential on this center.
    8          8
                                   No pseudopotential on this center.
    9          8
                                   No pseudopotential on this center.
 ======================================================================================================
 There are   196 symmetry adapted cartesian basis functions of A   symmetry.
 There are   182 symmetry adapted basis functions of A   symmetry.
   182 basis functions,   389 primitive gaussians,   196 cartesian basis functions
    82 alpha electrons       82 beta electrons
       nuclear repulsion energy      1920.9861216781 Hartrees.
 NAtoms=    9 NActive=    9 NUniq=    9 SFac= 1.00D+00 NAtFMM=   60 NAOKFM=F Big=F
 Integral buffers will be    131072 words long.
 Raffenetti 2 integral format.
 Two-electron integral symmetry is turned on.
 ------------------------------------------------------------------------------
 Polarizable Continuum Model (PCM)
 =================================
 Model                : PCM (using non-symmetric T matrix).
 Atomic radii         : UFF (Universal Force Field).
 Polarization charges : Total charges.
 Charge compensation  : None.
 Solution method      : On-the-fly selection.
 Cavity type          : Scaled VdW (van der Waals Surface) (Alpha=1.100).
 Cavity algorithm     : GePol (No added spheres)
                        Default sphere list used, NSphG=    9.
                        Lebedev-Laikov grids with approx.  5.0 points / Ang**2.
                        Smoothing algorithm: Karplus/York (Gamma=1.0000).
                        Polarization charges: spherical gaussians, with
                                              point-specific exponents (IZeta= 3).
                        Self-potential: point-specific (ISelfS= 7).
                        Self-field    : sphere-specific E.n sum rule (ISelfD= 2).
 1st derivatives      : Analytical E(r).r(x)/FMM algorithm (CHGder, D1EAlg=3).
                        Cavity 1st derivative terms included.
 Solvent              : Water, Eps=  78.355300 Eps(inf)=   1.777849
 ------------------------------------------------------------------------------
 Spheres list:
 ISph  on   Nord     Re0    Alpha      Xe            Ye            Ze
    1  Pt      1    1.3770  1.100      0.084955     -0.207083      0.155541
    2  Cl      2    1.9735  1.100     -0.188490      0.570139      2.281465
    3  Cl      3    1.9735  1.100      2.200533     -0.880844      0.673978
    4  Br      4    2.0945  1.100      0.942871      1.961575     -0.526955
    5  Cl      5    1.9735  1.100     -0.617618     -1.983063      0.714458
    6  Br      6    2.0945  1.100     -2.169806      0.511004     -0.397003
    7   N      7    1.8300  1.100      0.323620     -0.885448     -1.699980
    8   O      8    1.7500  1.100      1.646039     -1.093121     -1.940150
    9   O      9    1.7500  1.100     -0.352830     -2.056325     -1.845113
 ------------------------------------------------------------------------------
 One-electron integrals computed using PRISM.
   1 Symmetry operations used in ECPInt.
 ECPInt:  NShTT=    2775 NPrTT=   14060 LenC2=    2573 LenP2D=    9141.
 LDataN:  DoStor=T MaxTD1= 6 Len=  172
 NBasis=   182 RedAO= T EigKep=  4.53D-03  NBF=   182
 NBsUse=   182 1.00D-06 EigRej= -1.00D+00 NBFU=   182
 Defaulting to unpruned grid for atomic number  78.
 ExpMin= 2.90D-02 ExpMax= 1.13D+05 ExpMxC= 1.70D+04 IAcc=3 IRadAn=         5 AccDes= 0.00D+00
 Harris functional with IExCor=  402 and IRadAn=       5 diagonalized for initial guess.
 HarFok:  IExCor=  402 AccDes= 0.00D+00 IRadAn=         5 IDoV= 1 UseB2=F ITyADJ=14
 ICtDFT=  3500011 ScaDFX=  1.000000  1.000000  1.000000  1.000000
 Defaulting to unpruned grid for atomic number  78.
 Defaulting to unpruned grid for atomic number  78.
 Defaulting to unpruned grid for atomic number  78.
 Defaulting to unpruned grid for atomic number  78.
 Defaulting to unpruned grid for atomic number  78.
 Defaulting to unpruned grid for atomic number  78.
 Defaulting to unpruned grid for atomic number  78.
 Defaulting to unpruned grid for atomic number  78.
 FoFCou: FMM=F IPFlag=           0 FMFlag=      100000 FMFlg1=           0
         NFxFlg=           0 DoJE=T BraDBF=F KetDBF=T FulRan=T
         wScrn=  0.000000 ICntrl=     500 IOpCl=  0 I1Cent=   200000004 NGrid=           0
         NMat0=    1 NMatS0=      1 NMatT0=    0 NMatD0=    1 NMtDS0=    0 NMtDT0=    0
 Petite list used in FoFCou.
 Keep R1 ints in memory in canonical form, NReq=144116861.
 Requested convergence on RMS density matrix=1.00D-08 within 128 cycles.
 Requested convergence on MAX density matrix=1.00D-06.
 Requested convergence on             energy=1.00D-06.
 No special actions if energy rises.
 Defaulting to unpruned grid for atomic number  78.
 Defaulting to unpruned grid for atomic number  78.
 Defaulting to unpruned grid for atomic number  78.
 Defaulting to unpruned grid for atomic number  78.
 Defaulting to unpruned grid for atomic number  78.
 Defaulting to unpruned grid for atomic number  78.
 Defaulting to unpruned grid for atomic number  78.
 Defaulting to unpruned grid for atomic number  78.
 Inv3:  Mode=1 IEnd=     5888403.
 Iteration    1 A*A^-1 deviation from unit magnitude is 6.00D-15 for    708.
 Iteration    1 A*A^-1 deviation from orthogonality  is 3.21D-15 for    766    514.
 Iteration    1 A^-1*A deviation from unit magnitude is 6.88D-15 for    518.
 Iteration    1 A^-1*A deviation from orthogonality  is 1.54D-15 for   1240   1180.
 EnCoef did     3 forward-backward iterations
 EnCoef did   100 forward-backward iterations
 EnCoef did     4 forward-backward iterations
 Error on total polarization charges =  0.01580
 SCF Done:  E(RB3LYP) =  -6852.35586046     A.U. after   19 cycles
            NFock= 19  Conv=0.60D-08     -V/T= 2.0135

 **********************************************************************

            Population analysis using the SCF density.

 **********************************************************************

 Orbital symmetries:
       Occupied  (A) (A) (A) (A) (A) (A) (A) (A) (A) (A) (A) (A)
                 (A) (A) (A) (A) (A) (A) (A) (A) (A) (A) (A) (A)
                 (A) (A) (A) (A) (A) (A) (A) (A) (A) (A) (A) (A)
                 (A) (A) (A) (A) (A) (A) (A) (A) (A) (A) (A) (A)
                 (A) (A) (A) (A) (A) (A) (A) (A) (A) (A) (A) (A)
                 (A) (A) (A) (A) (A) (A) (A) (A) (A) (A) (A) (A)
                 (A) (A) (A) (A) (A) (A) (A) (A) (A) (A)
       Virtual   (A) (A) (A) (A) (A) (A) (A) (A) (A) (A) (A) (A)
                 (A) (A) (A) (A) (A) (A) (A) (A) (A) (A) (A) (A)
                 (A) (A) (A) (A) (A) (A) (A) (A) (A) (A) (A) (A)
                 (A) (A) (A) (A) (A) (A) (A) (A) (A) (A) (A) (A)
                 (A) (A) (A) (A) (A) (A) (A) (A) (A) (A) (A) (A)
                 (A) (A) (A) (A) (A) (A) (A) (A) (A) (A) (A) (A)
                 (A) (A) (A) (A) (A) (A) (A) (A) (A) (A) (A) (A)
                 (A) (A) (A) (A) (A) (A) (A) (A) (A) (A) (A) (A)
                 (A) (A) (A) (A)
 The electronic state is 1-A.
 Alpha  occ. eigenvalues -- -482.74667-482.72803-101.44846-101.44769-101.44515
 Alpha  occ. eigenvalues --  -62.42837 -62.40989 -56.26027 -56.25734 -56.25731
 Alpha  occ. eigenvalues --  -56.24133 -56.23907 -56.23903 -19.13436 -19.13361
 Alpha  occ. eigenvalues --  -14.48298  -9.40878  -9.40160  -9.39918  -8.64611
 Alpha  occ. eigenvalues --   -8.62767  -7.17719  -7.16958  -7.16730  -7.16721
 Alpha  occ. eigenvalues --   -7.16697  -7.16116  -7.16115  -7.15872  -7.15851
 Alpha  occ. eigenvalues --   -6.47812  -6.46744  -6.46733  -6.45831  -6.44977
 Alpha  occ. eigenvalues --   -6.44961  -4.02686  -2.59265  -2.58964  -2.58956
 Alpha  occ. eigenvalues --   -2.58116  -2.58116  -2.57317  -2.57072  -2.57059
 Alpha  occ. eigenvalues --   -2.56389  -2.56389  -2.24752  -2.24236  -2.23669
 Alpha  occ. eigenvalues --   -1.08222  -0.92259  -0.80872  -0.76569  -0.75628
 Alpha  occ. eigenvalues --   -0.72558  -0.70928  -0.64284  -0.49380  -0.46408
 Alpha  occ. eigenvalues --   -0.45777  -0.44414  -0.43239  -0.41644  -0.41150
 Alpha  occ. eigenvalues --   -0.38433  -0.36717  -0.32362  -0.31218  -0.28567
 Alpha  occ. eigenvalues --   -0.27141  -0.26452  -0.26084  -0.25750  -0.25414
 Alpha  occ. eigenvalues --   -0.25285  -0.24877  -0.24416  -0.23949  -0.23683
 Alpha  occ. eigenvalues --   -0.22352  -0.21754
 Alpha virt. eigenvalues --   -0.12111  -0.07203  -0.02869   0.05478   0.05809
 Alpha virt. eigenvalues --    0.06269   0.15682   0.20192   0.20536   0.26064
 Alpha virt. eigenvalues --    0.27966   0.29397   0.37307   0.38232   0.39415
 Alpha virt. eigenvalues --    0.41281   0.45502   0.46246   0.47784   0.56094
 Alpha virt. eigenvalues --    0.56282   0.56932   0.57633   0.58904   0.62214
 Alpha virt. eigenvalues --    0.62485   0.62977   0.63988   0.65816   0.66877
 Alpha virt. eigenvalues --    0.67236   0.69113   0.70664   0.73030   0.74398
 Alpha virt. eigenvalues --    0.75207   0.76656   0.77395   0.78256   0.79280
 Alpha virt. eigenvalues --    0.79877   0.80722   0.81490   0.82409   0.82940
 Alpha virt. eigenvalues --    0.83965   0.85319   0.88321   0.91037   0.92563
 Alpha virt. eigenvalues --    0.95045   0.96418   0.98239   0.99077   1.02597
 Alpha virt. eigenvalues --    1.04038   1.04612   1.08698   1.09960   1.11635
 Alpha virt. eigenvalues --    1.14012   1.15734   1.16311   1.19731   1.21826
 Alpha virt. eigenvalues --    1.23373   1.23739   1.29162   1.30651   1.35567
 Alpha virt. eigenvalues --    1.46514   1.47123   1.51379   1.56762   1.94982
 Alpha virt. eigenvalues --    1.99379   2.08648   2.30575   2.34717   2.66691
 Alpha virt. eigenvalues --    2.66940   2.68445   2.70656   2.76190   2.98560
 Alpha virt. eigenvalues --    3.02786   3.23139   3.44946   3.46331   3.47294
 Alpha virt. eigenvalues --    3.48894   3.51129   3.53073   3.55799   3.62578
 Alpha virt. eigenvalues --    3.68010   3.72889   3.73665   3.80934   7.17796
          Condensed to atoms (all electrons):
               1          2          3          4          5          6
     1  Pt  17.450511   0.243100   0.218861   0.234698  -0.062796   0.188109
     2  Cl   0.243100  17.061600  -0.019723  -0.012836  -0.033207  -0.017403
     3  Cl   0.218861  -0.019723  17.101669  -0.020784  -0.041432  -0.003319
     4  Br   0.234698  -0.012836  -0.020784  35.072793  -0.008090  -0.027707
     5  Cl  -0.062796  -0.033207  -0.041432  -0.008090  17.643888  -0.046875
     6  Br   0.188109  -0.017403  -0.003319  -0.027707  -0.046875  35.061802
     7  N    0.028340  -0.003127  -0.014944  -0.017817  -0.048237  -0.021816
     8  O   -0.009190   0.000039  -0.022162   0.001262   0.000336   0.000503
     9  O   -0.009662   0.000036   0.000482   0.000520  -0.032709   0.001353
               7          8          9
     1  Pt   0.028340  -0.009190  -0.009662
     2  Cl  -0.003127   0.000039   0.000036
     3  Cl  -0.014944  -0.022162   0.000482
     4  Br  -0.017817   0.001262   0.000520
     5  Cl  -0.048237   0.000336  -0.032709
     6  Br  -0.021816   0.000503   0.001353
     7  N    6.725471   0.172405   0.179486
     8  O    0.172405   8.234809  -0.093253
     9  O    0.179486  -0.093253   8.242569
 Mulliken charges:
               1
     1  Pt  -0.281972
     2  Cl  -0.218479
     3  Cl  -0.198649
     4  Br  -0.222039
     5  Cl  -0.370877
     6  Br  -0.134649
     7  N    0.000237
     8  O   -0.284749
     9  O   -0.288822
 Sum of Mulliken charges =  -2.00000
 Mulliken charges with hydrogens summed into heavy atoms:
               1
     1  Pt  -0.281972
     2  Cl  -0.218479
     3  Cl  -0.198649
     4  Br  -0.222039
     5  Cl  -0.370877
     6  Br  -0.134649
     7  N    0.000237
     8  O   -0.284749
     9  O   -0.288822
 Electronic spatial extent (au):  <R**2>=           3126.1189
 Charge=             -2.0000 electrons
 Dipole moment (field-independent basis, Debye):
    X=             -2.3813    Y=              2.2141    Z=              0.5718  Tot=              3.3015
 Quadrupole moment (field-independent basis, Debye-Ang):
   XX=           -143.2904   YY=           -144.7569   ZZ=           -141.3537
   XY=              0.3937   XZ=              2.3798   YZ=             -5.0855
 Traceless Quadrupole moment (field-independent basis, Debye-Ang):
   XX=             -0.1568   YY=             -1.6232   ZZ=              1.7800
   XY=              0.3937   XZ=              2.3798   YZ=             -5.0855
 Octapole moment (field-independent basis, Debye-Ang**2):
  XXX=            -30.7124  YYY=             41.8524  ZZZ=            -12.5728  XYY=            -11.3121
  XXY=             16.3519  XXZ=              2.8773  XZZ=            -14.3978  YZZ=             24.3587
  YYZ=             10.2584  XYZ=             -0.6450
 Hexadecapole moment (field-independent basis, Debye-Ang**3):
 XXXX=          -1367.9427 YYYY=          -1309.3323 ZZZZ=          -1093.5566 XXXY=             23.6073
 XXXZ=             14.2736 YYYX=              4.3091 YYYZ=            -44.8310 ZZZX=             21.9753
 ZZZY=            -55.8757 XXYY=           -445.3154 XXZZ=           -418.5598 YYZZ=           -420.3033
 XXYZ=            -13.8900 YYXZ=              4.1420 ZZXY=             11.8132
 N-N= 1.920986121678D+03 E-N=-2.021158740532D+04  KE= 6.761237387261D+03
   1 Symmetry operations used in ECPInt.
 ECPInt:  NShTT=    2775 NPrTT=   14060 LenC2=    2573 LenP2D=    9141.
 LDataN:  DoStor=T MaxTD1= 7 Len=  274
 D1PCM: PCM CHGder 1st derivatives, ID1Alg=3 FixD1E=F DoIter=F DoCFld=F I1PDM=0.
 Calling FoFJK, ICntrl=      2127 FMM=F ISym2X=0 I1Cent= 0 IOpClX= 0 NMat=1 NMatS=1 NMatT=0.
 Defaulting to unpruned grid for atomic number  78.
 Defaulting to unpruned grid for atomic number  78.
 Defaulting to unpruned grid for atomic number  78.
 Defaulting to unpruned grid for atomic number  78.
 Defaulting to unpruned grid for atomic number  78.
 Defaulting to unpruned grid for atomic number  78.
 Defaulting to unpruned grid for atomic number  78.
 Defaulting to unpruned grid for atomic number  78.
 ***** Axes restored to original set *****
 -------------------------------------------------------------------
 Center     Atomic                   Forces (Hartrees/Bohr)
 Number     Number              X              Y              Z
 -------------------------------------------------------------------
      1       78          -0.197677783    0.002930851    0.029707124
      2       17           0.000686029    0.045116187   -0.002353929
      3       17           0.001113374    0.010073233   -0.050997484
      4       35          -0.045492644    0.000347072   -0.000061171
      5       17           0.233580208    0.013647699   -0.003284056
      6       35          -0.001360039   -0.000138439    0.036466893
      7        7           0.120592454   -0.097909522   -0.125098003
      8        8          -0.011152794    0.015187061    0.100680565
      9        8          -0.100288804    0.010745858    0.014940061
 -------------------------------------------------------------------
 Cartesian Forces:  Max     0.233580208 RMS     0.077826294

 GradGradGradGradGradGradGradGradGradGradGradGradGradGradGradGradGradGrad
 Berny optimization.
 FormGI is forming the generalized inverse of G from B-inverse, IUseBI=4.
 Internal  Forces:  Max     0.233589981 RMS     0.050970395
 Search for a local minimum.
 Step number   1 out of a maximum of   47
 All quantities printed in internal units (Hartrees-Bohrs-Radians)
 Mixed Optimization -- RFO/linear search
 Second derivative matrix not updated -- first step.
 ITU=  0
     Eigenvalues ---    0.00230   0.04734   0.08487   0.08931   0.12615
     Eigenvalues ---    0.12615   0.12615   0.13281   0.16743   0.19509
     Eigenvalues ---    0.19509   0.20378   0.22001   0.22001   0.25000
     Eigenvalues ---    0.25000   0.25000   0.25000   0.52948   0.52948
     Eigenvalues ---    0.57823
 RFO step:  Lambda=-1.72269698D-01 EMin= 2.30000000D-03
 Linear search not attempted -- first point.
 Maximum step size (   0.300) exceeded in Quadratic search.
    -- Step size scaled by   0.566
 Iteration  1 RMS(Cart)=  0.09059152 RMS(Int)=  0.00401538
 Iteration  2 RMS(Cart)=  0.00364726 RMS(Int)=  0.00198302
 Iteration  3 RMS(Cart)=  0.00002653 RMS(Int)=  0.00198294
 Iteration  4 RMS(Cart)=  0.00000020 RMS(Int)=  0.00198294
 Variable       Old X    -DE/DX   Delta X   Delta X   Delta X     New X
                                 (Linear)    (Quad)   (Total)
    R1        4.30858   0.04512   0.00000   0.06505   0.06505   4.37363
    R2        4.30858   0.05099   0.00000   0.07352   0.07352   4.38210
    R3        4.59203   0.04548   0.00000   0.07003   0.07003   4.66206
    R4        3.76056   0.23359   0.00000   0.17604   0.17604   3.93659
    R5        4.59203   0.03647   0.00000   0.05615   0.05615   4.64819
    R6        3.76056   0.07198   0.00000   0.10827   0.10827   3.86882
    R7        2.57003  -0.09353   0.00000  -0.07538  -0.07538   2.49465
    R8        2.57003  -0.09181   0.00000  -0.07399  -0.07399   2.49603
    A1        1.57080  -0.01338   0.00000  -0.01922  -0.01922   1.55158
    A2        1.57080   0.00035   0.00000  -0.00594  -0.00594   1.56485
    A3        1.57080  -0.01359   0.00000  -0.01861  -0.01859   1.55220
    A4        1.57080   0.00269   0.00000  -0.00104  -0.00104   1.56976
    A5        1.57080   0.00077   0.00000   0.00070   0.00075   1.57155
    A6        1.57080  -0.00285   0.00000  -0.00521  -0.00574   1.56505
    A7        1.57080   0.01939   0.00000   0.03062   0.03060   1.60140
    A8        1.57080  -0.00099   0.00000  -0.00119  -0.00126   1.56953
    A9        1.57080  -0.01114   0.00000  -0.01451  -0.01449   1.55630
   A10        1.57080   0.00307   0.00000   0.00569   0.00576   1.57656
   A11        1.57080   0.02438   0.00000   0.03906   0.03908   1.60988
   A12        1.57080  -0.00870   0.00000  -0.01036  -0.01036   1.56044
   A13        1.91063   0.04064   0.00000   0.07098   0.06565   1.97628
   A14        1.91063   0.05127   0.00000   0.08522   0.07994   1.99058
   A15        1.91063  -0.00581   0.00000   0.02530   0.01689   1.92752
   A16        3.14159   0.00601   0.00000   0.01139   0.01138   3.15298
   A17        3.14159  -0.01069   0.00000  -0.02026  -0.02026   3.12133
   A18        3.14159  -0.01324   0.00000  -0.02455  -0.02454   3.11706
   A19        3.14159   0.01079   0.00000   0.02046   0.02044   3.16203
   A20        3.14159  -0.00022   0.00000  -0.00049  -0.00039   3.14120
   A21        3.14159   0.00208   0.00000   0.00450   0.00452   3.14611
    D1       -0.27566  -0.02517   0.00000  -0.06382  -0.06498  -0.34064
    D2        1.81873   0.02400   0.00000   0.06281   0.06464   1.88338
    D3        1.29514  -0.02440   0.00000  -0.06312  -0.06467   1.23047
    D4       -2.89365   0.02476   0.00000   0.06351   0.06495  -2.82870
    D5       -1.84646  -0.02232   0.00000  -0.05862  -0.06042  -1.90688
    D6        0.24794   0.02685   0.00000   0.06801   0.06920   0.31714
    D7        2.86593  -0.02539   0.00000  -0.06431  -0.06578   2.80015
    D8       -1.32286   0.02377   0.00000   0.06232   0.06384  -1.25902
         Item               Value     Threshold  Converged?
 Maximum Force            0.233590     0.000450     NO 
 RMS     Force            0.050970     0.000300     NO 
 Maximum Displacement     0.224950     0.001800     NO 
 RMS     Displacement     0.089280     0.001200     NO 
 Predicted change in Energy=-8.046812D-02
 GradGradGradGradGradGradGradGradGradGradGradGradGradGradGradGradGradGrad

                          Input orientation:                          
 ---------------------------------------------------------------------
 Center     Atomic      Atomic             Coordinates (Angstroms)
 Number     Number       Type             X           Y           Z
 ---------------------------------------------------------------------
      1         78           0       -0.304463    0.360233   -0.015864
      2         17           0       -0.356577    2.673836    0.016945
      3         17           0       -0.303309    0.437701   -2.333476
      4         35           0       -2.771181    0.319348   -0.016599
      5         17           0        1.776911    0.445971   -0.023934
      6         35           0       -0.307770    0.327841    2.443635
      7          7           0       -0.300207   -1.687046   -0.021618
      8          8           0       -0.703751   -2.205411   -1.166669
      9          8           0        0.848420   -2.224026    0.348433
 ---------------------------------------------------------------------
                    Distance matrix (angstroms):
                    1          2          3          4          5
     1  Pt   0.000000
     2  Cl   2.314423   0.000000
     3  Cl   2.318906   3.244629   0.000000
     4  Br   2.467056   3.372691   3.387080   0.000000
     5  Cl   2.083155   3.084935   3.108274   4.549860   0.000000
     6  Br   2.459714   3.375634   4.778376   3.481554   3.232452
     7  N    2.047292   4.361417   3.139943   3.182979   2.977279
     8  O    2.840125   5.032745   2.916818   3.459962   3.806488
     9  O    2.853111   5.054795   3.950178   4.438863   2.851252
                    6          7          8          9
     6  Br   0.000000
     7  N    3.183913   0.000000
     8  O    4.428144   1.320110   0.000000
     9  O    3.498380   1.320844   2.169127   0.000000
 Stoichiometry    Br2Cl3NO2Pt(2-)
 Framework group  C1[X(Br2Cl3NO2Pt)]
 Deg. of freedom    21
 Full point group                 C1      NOp   1
 Largest Abelian subgroup         C1      NOp   1
 Largest concise Abelian subgroup C1      NOp   1
                         Standard orientation:                         
 ---------------------------------------------------------------------
 Center     Atomic      Atomic             Coordinates (Angstroms)
 Number     Number       Type             X           Y           Z
 ---------------------------------------------------------------------
      1         78           0        0.064266   -0.231898    0.153848
      2         17           0       -0.103840    0.522641    2.335353
      3         17           0        2.117336   -1.170598    0.684010
      4         35           0        1.186691    1.873876   -0.472446
      5         17           0       -0.878698   -1.996899    0.732749
      6         35           0       -2.117053    0.781049   -0.361886
      7          7           0        0.211327   -0.853979   -1.791091
      8          8           0        1.448102   -1.138207   -2.154811
      9          8           0       -0.600715   -1.848539   -2.101039
 ---------------------------------------------------------------------
 Rotational constants (GHZ):      0.4741192      0.4444439      0.3861822
 Basis read from rwf:  (5D, 7F)
 Pseudo-potential data read from rwf file.
 There are   196 symmetry adapted cartesian basis functions of A   symmetry.
 There are   182 symmetry adapted basis functions of A   symmetry.
   182 basis functions,   389 primitive gaussians,   196 cartesian basis functions
    82 alpha electrons       82 beta electrons
       nuclear repulsion energy      1883.6862703611 Hartrees.
 NAtoms=    9 NActive=    9 NUniq=    9 SFac= 1.00D+00 NAtFMM=   60 NAOKFM=F Big=F
 Integral buffers will be    131072 words long.
 Raffenetti 2 integral format.
 Two-electron integral symmetry is turned on.
 ------------------------------------------------------------------------------
 Polarizable Continuum Model (PCM)
 =================================
 Model                : PCM (using non-symmetric T matrix).
 Atomic radii         : UFF (Universal Force Field).
 Polarization charges : Total charges.
 Charge compensation  : None.
 Solution method      : On-the-fly selection.
 Cavity type          : Scaled VdW (van der Waals Surface) (Alpha=1.100).
 Cavity algorithm     : GePol (No added spheres)
                        Default sphere list used, NSphG=    9.
                        Lebedev-Laikov grids with approx.  5.0 points / Ang**2.
                        Smoothing algorithm: Karplus/York (Gamma=1.0000).
                        Polarization charges: spherical gaussians, with
                                              point-specific exponents (IZeta= 3).
                        Self-potential: point-specific (ISelfS= 7).
                        Self-field    : sphere-specific E.n sum rule (ISelfD= 2).
 1st derivatives      : Analytical E(r).r(x)/FMM algorithm (CHGder, D1EAlg=3).
                        Cavity 1st derivative terms included.
 Solvent              : Water, Eps=  78.355300 Eps(inf)=   1.777849
 ------------------------------------------------------------------------------
 Spheres list:
 ISph  on   Nord     Re0    Alpha      Xe            Ye            Ze
    1  Pt      1    1.3770  1.100      0.064266     -0.231898      0.153848
    2  Cl      2    1.9735  1.100     -0.103840      0.522641      2.335353
    3  Cl      3    1.9735  1.100      2.117336     -1.170598      0.684010
    4  Br      4    2.0945  1.100      1.186691      1.873876     -0.472446
    5  Cl      5    1.9735  1.100     -0.878698     -1.996899      0.732749
    6  Br      6    2.0945  1.100     -2.117053      0.781049     -0.361886
    7   N      7    1.8300  1.100      0.211327     -0.853979     -1.791091
    8   O      8    1.7500  1.100      1.448102     -1.138207     -2.154811
    9   O      9    1.7500  1.100     -0.600715     -1.848539     -2.101039
 ------------------------------------------------------------------------------
 One-electron integrals computed using PRISM.
   1 Symmetry operations used in ECPInt.
 ECPInt:  NShTT=    2775 NPrTT=   14060 LenC2=    2567 LenP2D=    9067.
 LDataN:  DoStor=T MaxTD1= 6 Len=  172
 NBasis=   182 RedAO= T EigKep=  5.23D-03  NBF=   182
 NBsUse=   182 1.00D-06 EigRej= -1.00D+00 NBFU=   182
 Defaulting to unpruned grid for atomic number  78.
 Initial guess from the checkpoint file:  "/home/scr/diego/Gau-13009.chk"
 B after Tr=     0.000000    0.000000    0.000000
         Rot=    0.997996   -0.021661   -0.004700    0.059275 Ang=  -7.26 deg.
 ExpMin= 2.90D-02 ExpMax= 1.13D+05 ExpMxC= 1.70D+04 IAcc=3 IRadAn=         5 AccDes= 0.00D+00
 Harris functional with IExCor=  402 and IRadAn=       5 diagonalized for initial guess.
 HarFok:  IExCor=  402 AccDes= 0.00D+00 IRadAn=         5 IDoV= 1 UseB2=F ITyADJ=14
 ICtDFT=  3500011 ScaDFX=  1.000000  1.000000  1.000000  1.000000
 Defaulting to unpruned grid for atomic number  78.
 Defaulting to unpruned grid for atomic number  78.
 Defaulting to unpruned grid for atomic number  78.
 Defaulting to unpruned grid for atomic number  78.
 Defaulting to unpruned grid for atomic number  78.
 Defaulting to unpruned grid for atomic number  78.
 Defaulting to unpruned grid for atomic number  78.
 Defaulting to unpruned grid for atomic number  78.
 FoFCou: FMM=F IPFlag=           0 FMFlag=      100000 FMFlg1=           0
         NFxFlg=           0 DoJE=T BraDBF=F KetDBF=T FulRan=T
         wScrn=  0.000000 ICntrl=     500 IOpCl=  0 I1Cent=   200000004 NGrid=           0
         NMat0=    1 NMatS0=      1 NMatT0=    0 NMatD0=    1 NMtDS0=    0 NMtDT0=    0
 Petite list used in FoFCou.
 Keep R1 ints in memory in canonical form, NReq=144237423.
 Requested convergence on RMS density matrix=1.00D-08 within 128 cycles.
 Requested convergence on MAX density matrix=1.00D-06.
 Requested convergence on             energy=1.00D-06.
 No special actions if energy rises.
 Defaulting to unpruned grid for atomic number  78.
 Defaulting to unpruned grid for atomic number  78.
 Defaulting to unpruned grid for atomic number  78.
 Defaulting to unpruned grid for atomic number  78.
 Defaulting to unpruned grid for atomic number  78.
 Defaulting to unpruned grid for atomic number  78.
 Defaulting to unpruned grid for atomic number  78.
 Defaulting to unpruned grid for atomic number  78.
 Inv3:  Mode=1 IEnd=     6238092.
 Iteration    1 A*A^-1 deviation from unit magnitude is 6.11D-15 for    616.
 Iteration    1 A*A^-1 deviation from orthogonality  is 2.62D-15 for    907    654.
 Iteration    1 A^-1*A deviation from unit magnitude is 6.55D-15 for    794.
 Iteration    1 A^-1*A deviation from orthogonality  is 1.70D-15 for   1076    134.
 Error on total polarization charges =  0.01528
 SCF Done:  E(RB3LYP) =  -6852.43467764     A.U. after   13 cycles
            NFock= 13  Conv=0.97D-08     -V/T= 2.0136
   1 Symmetry operations used in ECPInt.
 ECPInt:  NShTT=    2775 NPrTT=   14060 LenC2=    2567 LenP2D=    9067.
 LDataN:  DoStor=T MaxTD1= 7 Len=  274
 D1PCM: PCM CHGder 1st derivatives, ID1Alg=3 FixD1E=F DoIter=F DoCFld=F I1PDM=0.
 Calling FoFJK, ICntrl=      2127 FMM=F ISym2X=0 I1Cent= 0 IOpClX= 0 NMat=1 NMatS=1 NMatT=0.
 Defaulting to unpruned grid for atomic number  78.
 Defaulting to unpruned grid for atomic number  78.
 Defaulting to unpruned grid for atomic number  78.
 Defaulting to unpruned grid for atomic number  78.
 Defaulting to unpruned grid for atomic number  78.
 Defaulting to unpruned grid for atomic number  78.
 Defaulting to unpruned grid for atomic number  78.
 Defaulting to unpruned grid for atomic number  78.
 ***** Axes restored to original set *****
 -------------------------------------------------------------------
 Center     Atomic                   Forces (Hartrees/Bohr)
 Number     Number              X              Y              Z
 -------------------------------------------------------------------
      1       78          -0.126351587   -0.003924065    0.023080368
      2       17           0.000165078    0.030343575   -0.001328422
      3       17           0.000090447    0.003181340   -0.033011568
      4       35          -0.030161568   -0.001386447   -0.000154516
      5       17           0.143884721    0.007432401   -0.001367369
      6       35          -0.000541025   -0.001024293    0.025729307
      7        7           0.106804427   -0.092340234   -0.110603026
      8        8          -0.013457898    0.028949163    0.081467568
      9        8          -0.080432595    0.028768560    0.016187658
 -------------------------------------------------------------------
 Cartesian Forces:  Max     0.143884721 RMS     0.057171707

 GradGradGradGradGradGradGradGradGradGradGradGradGradGradGradGradGradGrad
 Berny optimization.
 Using GEDIIS/GDIIS optimizer.
 FormGI is forming the generalized inverse of G from B-inverse, IUseBI=4.
 Internal  Forces:  Max     0.144087199 RMS     0.033514709
 Search for a local minimum.
 Step number   2 out of a maximum of   47
 All quantities printed in internal units (Hartrees-Bohrs-Radians)
 Mixed Optimization -- RFO/linear search
 Update second derivatives using D2CorX and points    1    2
 DE= -7.88D-02 DEPred=-8.05D-02 R= 9.79D-01
 TightC=F SS=  1.41D+00  RLast= 3.48D-01 DXNew= 5.0454D-01 1.0452D+00
 Trust test= 9.79D-01 RLast= 3.48D-01 DXMaxT set to 5.05D-01
 ITU=  1  0
 Use linear search instead of GDIIS.
 Linear search step of   0.594 exceeds DXMaxT=   0.505 but not scaled.
 Quartic linear search produced a step of  2.00000.
 Iteration  1 RMS(Cart)=  0.15640204 RMS(Int)=  0.02991210
 Iteration  2 RMS(Cart)=  0.02578643 RMS(Int)=  0.01018412
 Iteration  3 RMS(Cart)=  0.00034024 RMS(Int)=  0.01018129
 Iteration  4 RMS(Cart)=  0.00000593 RMS(Int)=  0.01018129
 Iteration  5 RMS(Cart)=  0.00000015 RMS(Int)=  0.01018129
 Variable       Old X    -DE/DX   Delta X   Delta X   Delta X     New X
                                 (Linear)    (Quad)   (Total)
    R1        4.37363   0.03031   0.13010   0.00000   0.13010   4.50372
    R2        4.38210   0.03310   0.14705   0.00000   0.14705   4.52914
    R3        4.66206   0.03017   0.14005   0.00000   0.14005   4.80211
    R4        3.93659   0.14409   0.35208   0.00000   0.35208   4.28867
    R5        4.64819   0.02574   0.11230   0.00000   0.11230   4.76049
    R6        3.86882   0.03471   0.21653   0.00000   0.21653   4.08535
    R7        2.49465  -0.07792  -0.15076   0.00000  -0.15076   2.34388
    R8        2.49603  -0.07714  -0.14799   0.00000  -0.14799   2.34804
    A1        1.55158  -0.00420  -0.03843   0.00000  -0.03833   1.51325
    A2        1.56485   0.00196  -0.01189   0.00000  -0.01186   1.55300
    A3        1.55220  -0.00242  -0.03718   0.00000  -0.03708   1.51512
    A4        1.56976   0.00270  -0.00208   0.00000  -0.00211   1.56764
    A5        1.57155   0.00001   0.00151   0.00000   0.00181   1.57336
    A6        1.56505  -0.00073  -0.01149   0.00000  -0.01467   1.55038
    A7        1.60140   0.00330   0.06120   0.00000   0.06096   1.66236
    A8        1.56953  -0.00028  -0.00253   0.00000  -0.00298   1.56656
    A9        1.55630  -0.00233  -0.02899   0.00000  -0.02879   1.52751
   A10        1.57656   0.00096   0.01152   0.00000   0.01190   1.58845
   A11        1.60988   0.00279   0.07816   0.00000   0.07809   1.68797
   A12        1.56044  -0.00181  -0.02071   0.00000  -0.02065   1.53979
   A13        1.97628   0.01207   0.13130   0.00000   0.09867   2.07495
   A14        1.99058   0.01463   0.15989   0.00000   0.12762   2.11820
   A15        1.92752   0.01251   0.03377   0.00000  -0.00529   1.92223
   A16        3.15298  -0.00090   0.02277   0.00000   0.02262   3.17560
   A17        3.12133  -0.00149  -0.04052   0.00000  -0.04045   3.08089
   A18        3.11706  -0.00046  -0.04907   0.00000  -0.04894   3.06812
   A19        3.16203   0.00037   0.04087   0.00000   0.04077   3.20280
   A20        3.14120  -0.00030  -0.00078   0.00000  -0.00020   3.14100
   A21        3.14611   0.00061   0.00904   0.00000   0.00915   3.15527
    D1       -0.34064  -0.02063  -0.12995   0.00000  -0.13264  -0.47328
    D2        1.88338   0.02061   0.12929   0.00000   0.13600   2.01938
    D3        1.23047  -0.02074  -0.12933   0.00000  -0.13435   1.09612
    D4       -2.82870   0.02050   0.12991   0.00000   0.13429  -2.69441
    D5       -1.90688  -0.02011  -0.12084   0.00000  -0.12736  -2.03424
    D6        0.31714   0.02113   0.13839   0.00000   0.14128   0.45841
    D7        2.80015  -0.02096  -0.13156   0.00000  -0.13614   2.66401
    D8       -1.25902   0.02027   0.12768   0.00000   0.13250  -1.12652
         Item               Value     Threshold  Converged?
 Maximum Force            0.144087     0.000450     NO 
 RMS     Force            0.033515     0.000300     NO 
 Maximum Displacement     0.401827     0.001800     NO 
 RMS     Displacement     0.164854     0.001200     NO 
 Predicted change in Energy=-5.476376D-02
 GradGradGradGradGradGradGradGradGradGradGradGradGradGradGradGradGradGrad

                          Input orientation:                          
 ---------------------------------------------------------------------
 Center     Atomic      Atomic             Coordinates (Angstroms)
 Number     Number       Type             X           Y           Z
 ---------------------------------------------------------------------
      1         78           0       -0.272226    0.389394   -0.047335
      2         17           0       -0.421765    2.766211    0.044016
      3         17           0       -0.272977    0.619270   -2.433005
      4         35           0       -2.810824    0.275171   -0.051001
      5         17           0        1.981114    0.658609   -0.068638
      6         35           0       -0.282532    0.299952    2.470199
      7          7           0       -0.268578   -1.772456   -0.057068
      8          8           0       -0.762729   -2.368098   -1.026317
      9          8           0        0.688589   -2.419605    0.400002
 ---------------------------------------------------------------------
                    Distance matrix (angstroms):
                    1          2          3          4          5
     1  Pt   0.000000
     2  Cl   2.383268   0.000000
     3  Cl   2.396719   3.281330   0.000000
     4  Br   2.541169   3.452813   3.497573   0.000000
     5  Cl   2.269466   3.198204   3.266910   4.807288   0.000000
     6  Br   2.519143   3.462396   4.913600   3.570620   3.420296
     7  N    2.161875   4.542376   3.371268   3.264327   3.312299
     8  O    2.966944   5.255759   3.338112   3.483218   4.196044
     9  O    3.002291   5.315289   4.264422   4.439720   3.371297
                    6          7          8          9
     6  Br   0.000000
     7  N    3.268356   0.000000
     8  O    4.424331   1.240330   0.000000
     9  O    3.553137   1.242531   2.035525   0.000000
 Stoichiometry    Br2Cl3NO2Pt(2-)
 Framework group  C1[X(Br2Cl3NO2Pt)]
 Deg. of freedom    21
 Full point group                 C1      NOp   1
 Largest Abelian subgroup         C1      NOp   1
 Largest concise Abelian subgroup C1      NOp   1
                         Standard orientation:                         
 ---------------------------------------------------------------------
 Center     Atomic      Atomic             Coordinates (Angstroms)
 Number     Number       Type             X           Y           Z
 ---------------------------------------------------------------------
      1         78           0        0.022690   -0.296335    0.089744
      2         17           0        0.006306   -0.052034    2.460402
      3         17           0        1.920786   -1.728780    0.389070
      4         35           0        1.560712    1.720840   -0.062030
      5         17           0       -1.325336   -2.096720    0.392917
      6         35           0       -1.975803    1.228640   -0.073233
      7          7           0        0.059099   -0.368800   -2.070609
      8          8           0        1.138405   -0.577575   -2.645003
      9          8           0       -0.874050   -0.874680   -2.716521
 ---------------------------------------------------------------------
 Rotational constants (GHZ):      0.4348914      0.4081208      0.3684807
 Basis read from rwf:  (5D, 7F)
 Pseudo-potential data read from rwf file.
 There are   196 symmetry adapted cartesian basis functions of A   symmetry.
 There are   182 symmetry adapted basis functions of A   symmetry.
   182 basis functions,   389 primitive gaussians,   196 cartesian basis functions
    82 alpha electrons       82 beta electrons
       nuclear repulsion energy      1819.4514228326 Hartrees.
 NAtoms=    9 NActive=    9 NUniq=    9 SFac= 1.00D+00 NAtFMM=   60 NAOKFM=F Big=F
 Integral buffers will be    131072 words long.
 Raffenetti 2 integral format.
 Two-electron integral symmetry is turned on.
 ------------------------------------------------------------------------------
 Polarizable Continuum Model (PCM)
 =================================
 Model                : PCM (using non-symmetric T matrix).
 Atomic radii         : UFF (Universal Force Field).
 Polarization charges : Total charges.
 Charge compensation  : None.
 Solution method      : On-the-fly selection.
 Cavity type          : Scaled VdW (van der Waals Surface) (Alpha=1.100).
 Cavity algorithm     : GePol (No added spheres)
                        Default sphere list used, NSphG=    9.
                        Lebedev-Laikov grids with approx.  5.0 points / Ang**2.
                        Smoothing algorithm: Karplus/York (Gamma=1.0000).
                        Polarization charges: spherical gaussians, with
                                              point-specific exponents (IZeta= 3).
                        Self-potential: point-specific (ISelfS= 7).
                        Self-field    : sphere-specific E.n sum rule (ISelfD= 2).
 1st derivatives      : Analytical E(r).r(x)/FMM algorithm (CHGder, D1EAlg=3).
                        Cavity 1st derivative terms included.
 Solvent              : Water, Eps=  78.355300 Eps(inf)=   1.777849
 ------------------------------------------------------------------------------
 Spheres list:
 ISph  on   Nord     Re0    Alpha      Xe            Ye            Ze
    1  Pt      1    1.3770  1.100      0.022690     -0.296335      0.089744
    2  Cl      2    1.9735  1.100      0.006306     -0.052034      2.460402
    3  Cl      3    1.9735  1.100      1.920786     -1.728780      0.389070
    4  Br      4    2.0945  1.100      1.560712      1.720840     -0.062030
    5  Cl      5    1.9735  1.100     -1.325336     -2.096720      0.392917
    6  Br      6    2.0945  1.100     -1.975803      1.228640     -0.073233
    7   N      7    1.8300  1.100      0.059099     -0.368800     -2.070609
    8   O      8    1.7500  1.100      1.138405     -0.577575     -2.645003
    9   O      9    1.7500  1.100     -0.874050     -0.874680     -2.716521
 ------------------------------------------------------------------------------
 One-electron integrals computed using PRISM.
   1 Symmetry operations used in ECPInt.
 ECPInt:  NShTT=    2775 NPrTT=   14060 LenC2=    2541 LenP2D=    8937.
 LDataN:  DoStor=T MaxTD1= 6 Len=  172
 NBasis=   182 RedAO= T EigKep=  5.95D-03  NBF=   182
 NBsUse=   182 1.00D-06 EigRej= -1.00D+00 NBFU=   182
 Defaulting to unpruned grid for atomic number  78.
 Initial guess from the checkpoint file:  "/home/scr/diego/Gau-13009.chk"
 B after Tr=     0.000000    0.000000    0.000000
         Rot=    0.987051   -0.130843   -0.011850    0.092032 Ang= -18.46 deg.
 ExpMin= 2.90D-02 ExpMax= 1.13D+05 ExpMxC= 1.70D+04 IAcc=3 IRadAn=         5 AccDes= 0.00D+00
 Harris functional with IExCor=  402 and IRadAn=       5 diagonalized for initial guess.
 HarFok:  IExCor=  402 AccDes= 0.00D+00 IRadAn=         5 IDoV= 1 UseB2=F ITyADJ=14
 ICtDFT=  3500011 ScaDFX=  1.000000  1.000000  1.000000  1.000000
 Defaulting to unpruned grid for atomic number  78.
 Defaulting to unpruned grid for atomic number  78.
 Defaulting to unpruned grid for atomic number  78.
 Defaulting to unpruned grid for atomic number  78.
 Defaulting to unpruned grid for atomic number  78.
 Defaulting to unpruned grid for atomic number  78.
 Defaulting to unpruned grid for atomic number  78.
 Defaulting to unpruned grid for atomic number  78.
 FoFCou: FMM=F IPFlag=           0 FMFlag=      100000 FMFlg1=           0
         NFxFlg=           0 DoJE=T BraDBF=F KetDBF=T FulRan=T
         wScrn=  0.000000 ICntrl=     500 IOpCl=  0 I1Cent=   200000004 NGrid=           0
         NMat0=    1 NMatS0=      1 NMatT0=    0 NMatD0=    1 NMtDS0=    0 NMtDT0=    0
 Petite list used in FoFCou.
 Keep R1 ints in memory in canonical form, NReq=144460807.
 Requested convergence on RMS density matrix=1.00D-08 within 128 cycles.
 Requested convergence on MAX density matrix=1.00D-06.
 Requested convergence on             energy=1.00D-06.
 No special actions if energy rises.
 Defaulting to unpruned grid for atomic number  78.
 Defaulting to unpruned grid for atomic number  78.
 Defaulting to unpruned grid for atomic number  78.
 Defaulting to unpruned grid for atomic number  78.
 Defaulting to unpruned grid for atomic number  78.
 Defaulting to unpruned grid for atomic number  78.
 Defaulting to unpruned grid for atomic number  78.
 Defaulting to unpruned grid for atomic number  78.
 Inv3:  Mode=1 IEnd=     6885675.
 Iteration    1 A*A^-1 deviation from unit magnitude is 6.77D-15 for    878.
 Iteration    1 A*A^-1 deviation from orthogonality  is 3.79D-15 for   1110    690.
 Iteration    1 A^-1*A deviation from unit magnitude is 5.77D-15 for    505.
 Iteration    1 A^-1*A deviation from orthogonality  is 1.88D-14 for    748    355.
 Error on total polarization charges =  0.01456
 SCF Done:  E(RB3LYP) =  -6852.50433641     A.U. after   16 cycles
            NFock= 16  Conv=0.19D-08     -V/T= 2.0136
   1 Symmetry operations used in ECPInt.
 ECPInt:  NShTT=    2775 NPrTT=   14060 LenC2=    2541 LenP2D=    8937.
 LDataN:  DoStor=T MaxTD1= 7 Len=  274
 D1PCM: PCM CHGder 1st derivatives, ID1Alg=3 FixD1E=F DoIter=F DoCFld=F I1PDM=0.
 Calling FoFJK, ICntrl=      2127 FMM=F ISym2X=0 I1Cent= 0 IOpClX= 0 NMat=1 NMatS=1 NMatT=0.
 Defaulting to unpruned grid for atomic number  78.
 Defaulting to unpruned grid for atomic number  78.
 Defaulting to unpruned grid for atomic number  78.
 Defaulting to unpruned grid for atomic number  78.
 Defaulting to unpruned grid for atomic number  78.
 Defaulting to unpruned grid for atomic number  78.
 Defaulting to unpruned grid for atomic number  78.
 Defaulting to unpruned grid for atomic number  78.
 ***** Axes restored to original set *****
 -------------------------------------------------------------------
 Center     Atomic                   Forces (Hartrees/Bohr)
 Number     Number              X              Y              Z
 -------------------------------------------------------------------
      1       78          -0.048763921   -0.006385454    0.012956076
      2       17           0.000183342    0.010291215    0.000037861
      3       17          -0.000313496   -0.004378534   -0.008533117
      4       35          -0.006259936   -0.002044610    0.000205413
      5       17           0.041808645   -0.002410979    0.000366991
      6       35           0.000462944   -0.001735303    0.007597427
      7        7           0.062095596   -0.058903644   -0.064743499
      8        8          -0.046589338    0.032235329    0.004034458
      9        8          -0.002623835    0.033331980    0.048078390
 -------------------------------------------------------------------
 Cartesian Forces:  Max     0.064743499 RMS     0.029069182

 GradGradGradGradGradGradGradGradGradGradGradGradGradGradGradGradGradGrad
 Berny optimization.
 Using GEDIIS/GDIIS optimizer.
 FormGI is forming the generalized inverse of G from B-inverse, IUseBI=4.
 Internal  Forces:  Max     0.067213237 RMS     0.017167154
 Search for a local minimum.
 Step number   3 out of a maximum of   47
 All quantities printed in internal units (Hartrees-Bohrs-Radians)
 Mixed Optimization -- RFO/linear search
 Update second derivatives using D2CorX and points    2    3
 ITU=  0  1  0
 Use linear search instead of GDIIS.
     Eigenvalues ---    0.00230   0.01671   0.08403   0.08857   0.12541
     Eigenvalues ---    0.12599   0.12724   0.13416   0.16652   0.16920
     Eigenvalues ---    0.19510   0.19873   0.21315   0.22002   0.24712
     Eigenvalues ---    0.25000   0.25000   0.29765   0.38963   0.52948
     Eigenvalues ---    0.58256
 RFO step:  Lambda=-5.96337803D-02 EMin= 2.29997493D-03
 Quartic linear search produced a step of  0.25824.
 Iteration  1 RMS(Cart)=  0.07175996 RMS(Int)=  0.02580782
 Iteration  2 RMS(Cart)=  0.02183771 RMS(Int)=  0.00700459
 Iteration  3 RMS(Cart)=  0.00055588 RMS(Int)=  0.00698189
 Iteration  4 RMS(Cart)=  0.00000010 RMS(Int)=  0.00698189
 Variable       Old X    -DE/DX   Delta X   Delta X   Delta X     New X
                                 (Linear)    (Quad)   (Total)
    R1        4.50372   0.01025   0.03360   0.03498   0.06857   4.57230
    R2        4.52914   0.00808   0.03797   0.02563   0.06360   4.59274
    R3        4.80211   0.00634   0.03617   0.02092   0.05709   4.85920
    R4        4.28867   0.04123   0.09092   0.05984   0.15076   4.43943
    R5        4.76049   0.00765   0.02900   0.02758   0.05658   4.81707
    R6        4.08535  -0.00658   0.05592  -0.03427   0.02164   4.10699
    R7        2.34388  -0.00008  -0.03893   0.01039  -0.02854   2.31535
    R8        2.34804  -0.00170  -0.03822   0.00716  -0.03106   2.31699
    A1        1.51325   0.00533  -0.00990   0.02319   0.01331   1.52656
    A2        1.55300   0.00302  -0.00306   0.03012   0.02710   1.58010
    A3        1.51512   0.00688  -0.00958   0.02632   0.01674   1.53186
    A4        1.56764   0.00224  -0.00055   0.02243   0.02187   1.58951
    A5        1.57336  -0.00020   0.00047   0.00205   0.00241   1.57577
    A6        1.55038   0.00215  -0.00379   0.00898   0.00384   1.55422
    A7        1.66236  -0.01035   0.01574  -0.05202  -0.03636   1.62600
    A8        1.56656   0.00022  -0.00077   0.00027  -0.00090   1.56566
    A9        1.52751   0.00460  -0.00743   0.01503   0.00768   1.53519
   A10        1.58845  -0.00102   0.00307  -0.00456  -0.00167   1.58678
   A11        1.68797  -0.01459   0.02017  -0.07196  -0.05183   1.63614
   A12        1.53979   0.00280  -0.00533   0.00666   0.00130   1.54109
   A13        2.07495  -0.03030   0.02548  -0.06152  -0.06030   2.01465
   A14        2.11820  -0.03429   0.03296  -0.07655  -0.06784   2.05036
   A15        1.92223   0.06721  -0.00137   0.30596   0.27986   2.20209
   A16        3.17560  -0.00501   0.00584  -0.02883  -0.02304   3.15256
   A17        3.08089   0.00757  -0.01044   0.04563   0.03518   3.11607
   A18        3.06812   0.00990  -0.01264   0.05644   0.04384   3.11196
   A19        3.20280  -0.00767   0.01053  -0.04548  -0.03492   3.16788
   A20        3.14100  -0.00030  -0.00005  -0.00032   0.00020   3.14120
   A21        3.15527  -0.00100   0.00236  -0.00615  -0.00336   3.15190
    D1       -0.47328  -0.01449  -0.03425  -0.20154  -0.23598  -0.70926
    D2        2.01938   0.01373   0.03512   0.19604   0.23316   2.25254
    D3        1.09612  -0.01382  -0.03469  -0.19584  -0.23157   0.86455
    D4       -2.69441   0.01440   0.03468   0.20174   0.23758  -2.45683
    D5       -2.03424  -0.01413  -0.03289  -0.19802  -0.23280  -2.26704
    D6        0.45841   0.01409   0.03648   0.19956   0.23635   0.69476
    D7        2.66401  -0.01386  -0.03516  -0.19632  -0.23275   2.43127
    D8       -1.12652   0.01436   0.03422   0.20126   0.23640  -0.89012
         Item               Value     Threshold  Converged?
 Maximum Force            0.067213     0.000450     NO 
 RMS     Force            0.017167     0.000300     NO 
 Maximum Displacement     0.235571     0.001800     NO 
 RMS     Displacement     0.088472     0.001200     NO 
 Predicted change in Energy=-4.397160D-02
 GradGradGradGradGradGradGradGradGradGradGradGradGradGradGradGradGradGrad

                          Input orientation:                          
 ---------------------------------------------------------------------
 Center     Atomic      Atomic             Coordinates (Angstroms)
 Number     Number       Type             X           Y           Z
 ---------------------------------------------------------------------
      1         78           0       -0.272709    0.391052   -0.061135
      2         17           0       -0.431707    2.802569    0.055300
      3         17           0       -0.273094    0.615707   -2.481104
      4         35           0       -2.836844    0.198213   -0.065780
      5         17           0        2.063497    0.637640   -0.077715
      6         35           0       -0.277587    0.220063    2.482205
      7          7           0       -0.186933   -1.779070   -0.142181
      8          8           0       -0.884545   -2.301399   -1.003397
      9          8           0        0.677994   -2.336329    0.524661
 ---------------------------------------------------------------------
                    Distance matrix (angstroms):
                    1          2          3          4          5
     1  Pt   0.000000
     2  Cl   2.419556   0.000000
     3  Cl   2.430374   3.352740   0.000000
     4  Br   2.571380   3.547113   3.546957   0.000000
     5  Cl   2.349243   3.306155   3.352077   4.920019   0.000000
     6  Br   2.549086   3.547247   4.979055   3.611440   3.494029
     7  N    2.173328   4.592421   3.348573   3.307191   3.302889
     8  O    2.917446   5.232245   3.326710   3.307364   4.264480
     9  O    2.947134   5.278258   4.318994   4.373398   3.335710
                    6          7          8          9
     6  Br   0.000000
     7  N    3.300326   0.000000
     8  O    4.344604   1.225228   0.000000
     9  O    3.358609   1.226097   2.185797   0.000000
 Stoichiometry    Br2Cl3NO2Pt(2-)
 Framework group  C1[X(Br2Cl3NO2Pt)]
 Deg. of freedom    21
 Full point group                 C1      NOp   1
 Largest Abelian subgroup         C1      NOp   1
 Largest concise Abelian subgroup C1      NOp   1
                         Standard orientation:                         
 ---------------------------------------------------------------------
 Center     Atomic      Atomic             Coordinates (Angstroms)
 Number     Number       Type             X           Y           Z
 ---------------------------------------------------------------------
      1         78           0        0.005656   -0.316906    0.049441
      2         17           0        0.031071   -0.515643    2.460687
      3         17           0        1.809809   -1.944695    0.004110
      4         35           0        1.718529    1.597428    0.165163
      5         17           0       -1.539268   -2.086291    0.011654
      6         35           0       -1.886784    1.387162    0.161965
      7          7           0        0.003314   -0.080303   -2.110969
      8          8           0        1.108952   -0.048611   -2.637984
      9          8           0       -1.071807   -0.187286   -2.690609
 ---------------------------------------------------------------------
 Rotational constants (GHZ):      0.4308819      0.4025954      0.3567574
 Basis read from rwf:  (5D, 7F)
 Pseudo-potential data read from rwf file.
 There are   196 symmetry adapted cartesian basis functions of A   symmetry.
 There are   182 symmetry adapted basis functions of A   symmetry.
   182 basis functions,   389 primitive gaussians,   196 cartesian basis functions
    82 alpha electrons       82 beta electrons
       nuclear repulsion energy      1801.1604839383 Hartrees.
 NAtoms=    9 NActive=    9 NUniq=    9 SFac= 1.00D+00 NAtFMM=   60 NAOKFM=F Big=F
 Integral buffers will be    131072 words long.
 Raffenetti 2 integral format.
 Two-electron integral symmetry is turned on.
 ------------------------------------------------------------------------------
 Polarizable Continuum Model (PCM)
 =================================
 Model                : PCM (using non-symmetric T matrix).
 Atomic radii         : UFF (Universal Force Field).
 Polarization charges : Total charges.
 Charge compensation  : None.
 Solution method      : On-the-fly selection.
 Cavity type          : Scaled VdW (van der Waals Surface) (Alpha=1.100).
 Cavity algorithm     : GePol (No added spheres)
                        Default sphere list used, NSphG=    9.
                        Lebedev-Laikov grids with approx.  5.0 points / Ang**2.
                        Smoothing algorithm: Karplus/York (Gamma=1.0000).
                        Polarization charges: spherical gaussians, with
                                              point-specific exponents (IZeta= 3).
                        Self-potential: point-specific (ISelfS= 7).
                        Self-field    : sphere-specific E.n sum rule (ISelfD= 2).
 1st derivatives      : Analytical E(r).r(x)/FMM algorithm (CHGder, D1EAlg=3).
                        Cavity 1st derivative terms included.
 Solvent              : Water, Eps=  78.355300 Eps(inf)=   1.777849
 ------------------------------------------------------------------------------
 Spheres list:
 ISph  on   Nord     Re0    Alpha      Xe            Ye            Ze
    1  Pt      1    1.3770  1.100      0.005656     -0.316906      0.049441
    2  Cl      2    1.9735  1.100      0.031071     -0.515643      2.460687
    3  Cl      3    1.9735  1.100      1.809809     -1.944695      0.004110
    4  Br      4    2.0945  1.100      1.718529      1.597428      0.165163
    5  Cl      5    1.9735  1.100     -1.539268     -2.086291      0.011654
    6  Br      6    2.0945  1.100     -1.886784      1.387162      0.161965
    7   N      7    1.8300  1.100      0.003314     -0.080303     -2.110969
    8   O      8    1.7500  1.100      1.108952     -0.048611     -2.637984
    9   O      9    1.7500  1.100     -1.071807     -0.187286     -2.690609
 ------------------------------------------------------------------------------
 One-electron integrals computed using PRISM.
   1 Symmetry operations used in ECPInt.
 ECPInt:  NShTT=    2775 NPrTT=   14060 LenC2=    2538 LenP2D=    8907.
 LDataN:  DoStor=T MaxTD1= 6 Len=  172
 NBasis=   182 RedAO= T EigKep=  6.31D-03  NBF=   182
 NBsUse=   182 1.00D-06 EigRej= -1.00D+00 NBFU=   182
 Defaulting to unpruned grid for atomic number  78.
 Initial guess from the checkpoint file:  "/home/scr/diego/Gau-13009.chk"
 B after Tr=     0.000000    0.000000    0.000000
         Rot=    0.994951   -0.091378   -0.010259    0.040210 Ang= -11.52 deg.
 ExpMin= 2.90D-02 ExpMax= 1.13D+05 ExpMxC= 1.70D+04 IAcc=3 IRadAn=         5 AccDes= 0.00D+00
 Harris functional with IExCor=  402 and IRadAn=       5 diagonalized for initial guess.
 HarFok:  IExCor=  402 AccDes= 0.00D+00 IRadAn=         5 IDoV= 1 UseB2=F ITyADJ=14
 ICtDFT=  3500011 ScaDFX=  1.000000  1.000000  1.000000  1.000000
 Defaulting to unpruned grid for atomic number  78.
 Defaulting to unpruned grid for atomic number  78.
 Defaulting to unpruned grid for atomic number  78.
 Defaulting to unpruned grid for atomic number  78.
 Defaulting to unpruned grid for atomic number  78.
 Defaulting to unpruned grid for atomic number  78.
 Defaulting to unpruned grid for atomic number  78.
 Defaulting to unpruned grid for atomic number  78.
 FoFCou: FMM=F IPFlag=           0 FMFlag=      100000 FMFlg1=           0
         NFxFlg=           0 DoJE=T BraDBF=F KetDBF=T FulRan=T
         wScrn=  0.000000 ICntrl=     500 IOpCl=  0 I1Cent=   200000004 NGrid=           0
         NMat0=    1 NMatS0=      1 NMatT0=    0 NMatD0=    1 NMtDS0=    0 NMtDT0=    0
 Petite list used in FoFCou.
 Keep R1 ints in memory in canonical form, NReq=144518487.
 Requested convergence on RMS density matrix=1.00D-08 within 128 cycles.
 Requested convergence on MAX density matrix=1.00D-06.
 Requested convergence on             energy=1.00D-06.
 No special actions if energy rises.
 Defaulting to unpruned grid for atomic number  78.
 Defaulting to unpruned grid for atomic number  78.
 Defaulting to unpruned grid for atomic number  78.
 Defaulting to unpruned grid for atomic number  78.
 Defaulting to unpruned grid for atomic number  78.
 Defaulting to unpruned grid for atomic number  78.
 Defaulting to unpruned grid for atomic number  78.
 Defaulting to unpruned grid for atomic number  78.
 Inv3:  Mode=1 IEnd=     7050267.
 Iteration    1 A*A^-1 deviation from unit magnitude is 6.55D-15 for    282.
 Iteration    1 A*A^-1 deviation from orthogonality  is 4.08D-15 for    174      8.
 Iteration    1 A^-1*A deviation from unit magnitude is 6.44D-15 for    489.
 Iteration    1 A^-1*A deviation from orthogonality  is 1.65D-13 for   1079   1077.
 Error on total polarization charges =  0.01449
 SCF Done:  E(RB3LYP) =  -6852.53551304     A.U. after   15 cycles
            NFock= 15  Conv=0.46D-08     -V/T= 2.0137
   1 Symmetry operations used in ECPInt.
 ECPInt:  NShTT=    2775 NPrTT=   14060 LenC2=    2538 LenP2D=    8907.
 LDataN:  DoStor=T MaxTD1= 7 Len=  274
 D1PCM: PCM CHGder 1st derivatives, ID1Alg=3 FixD1E=F DoIter=F DoCFld=F I1PDM=0.
 Calling FoFJK, ICntrl=      2127 FMM=F ISym2X=0 I1Cent= 0 IOpClX= 0 NMat=1 NMatS=1 NMatT=0.
 Defaulting to unpruned grid for atomic number  78.
 Defaulting to unpruned grid for atomic number  78.
 Defaulting to unpruned grid for atomic number  78.
 Defaulting to unpruned grid for atomic number  78.
 Defaulting to unpruned grid for atomic number  78.
 Defaulting to unpruned grid for atomic number  78.
 Defaulting to unpruned grid for atomic number  78.
 Defaulting to unpruned grid for atomic number  78.
 ***** Axes restored to original set *****
 -------------------------------------------------------------------
 Center     Atomic                   Forces (Hartrees/Bohr)
 Number     Number              X              Y              Z
 -------------------------------------------------------------------
      1       78          -0.021311437   -0.011727620    0.002939824
      2       17          -0.001054278    0.007180961    0.001097389
      3       17          -0.000005925   -0.003557921    0.000516892
      4       35           0.001084307    0.000339415    0.000760950
      5       17           0.016164388   -0.002692656    0.000476553
      6       35          -0.000127390   -0.000008223    0.000825228
      7        7           0.015141493    0.012541518   -0.015954945
      8        8           0.009887712   -0.002775690    0.018838759
      9        8          -0.019778869    0.000700216   -0.009500651
 -------------------------------------------------------------------
 Cartesian Forces:  Max     0.021311437 RMS     0.009664633

 GradGradGradGradGradGradGradGradGradGradGradGradGradGradGradGradGradGrad
 Berny optimization.
 Using GEDIIS/GDIIS optimizer.
 FormGI is forming the generalized inverse of G from B-inverse, IUseBI=4.
 Internal  Forces:  Max     0.019398190 RMS     0.007075433
 Search for a local minimum.
 Step number   4 out of a maximum of   47
 All quantities printed in internal units (Hartrees-Bohrs-Radians)
 Mixed Optimization -- RFO/linear search
 Update second derivatives using D2CorX and points    3    4
 DE= -3.12D-02 DEPred=-4.40D-02 R= 7.09D-01
 TightC=F SS=  1.41D+00  RLast= 7.60D-01 DXNew= 8.4853D-01 2.2801D+00
 Trust test= 7.09D-01 RLast= 7.60D-01 DXMaxT set to 8.49D-01
 ITU=  1  0  1  0
 Use linear search instead of GDIIS.
     Eigenvalues ---    0.00230   0.01270   0.08449   0.08894   0.12013
     Eigenvalues ---    0.12552   0.12640   0.13107   0.14930   0.16735
     Eigenvalues ---    0.19512   0.19926   0.20878   0.22056   0.24758
     Eigenvalues ---    0.24997   0.25002   0.27116   0.42260   0.52948
     Eigenvalues ---    0.62728
 RFO step:  Lambda=-9.43413501D-03 EMin= 2.29994794D-03
 Quartic linear search produced a step of  0.14270.
 Iteration  1 RMS(Cart)=  0.04769894 RMS(Int)=  0.00800223
 Iteration  2 RMS(Cart)=  0.00665618 RMS(Int)=  0.00597251
 Iteration  3 RMS(Cart)=  0.00002410 RMS(Int)=  0.00597247
 Iteration  4 RMS(Cart)=  0.00000001 RMS(Int)=  0.00597247
 Variable       Old X    -DE/DX   Delta X   Delta X   Delta X     New X
                                 (Linear)    (Quad)   (Total)
    R1        4.57230   0.00728   0.00979   0.01261   0.02239   4.59469
    R2        4.59274  -0.00083   0.00908  -0.02751  -0.01844   4.57430
    R3        4.85920  -0.00110   0.00815  -0.02908  -0.02094   4.83827
    R4        4.43943   0.01578   0.02151  -0.01504   0.00648   4.44590
    R5        4.81707   0.00081   0.00807  -0.01624  -0.00817   4.80891
    R6        4.10699  -0.01000   0.00309  -0.07255  -0.06946   4.03754
    R7        2.31535  -0.01773  -0.00407  -0.01751  -0.02158   2.29376
    R8        2.31699  -0.01940  -0.00443  -0.02077  -0.02520   2.29179
    A1        1.52656   0.00481   0.00190   0.02377   0.02567   1.55223
    A2        1.58010  -0.00103   0.00387   0.00719   0.01112   1.59122
    A3        1.53186   0.00547   0.00239   0.02287   0.02528   1.55714
    A4        1.58951  -0.00089   0.00312   0.00603   0.00915   1.59867
    A5        1.57577   0.00032   0.00034   0.00569   0.00612   1.58190
    A6        1.55422   0.00114   0.00055   0.00866   0.00791   1.56213
    A7        1.62600  -0.00752  -0.00519  -0.04263  -0.04782   1.57818
    A8        1.56566  -0.00066  -0.00013  -0.00757  -0.00795   1.55771
    A9        1.53519   0.00466   0.00110   0.01933   0.02055   1.55575
   A10        1.58678  -0.00058  -0.00024  -0.00516  -0.00539   1.58139
   A11        1.63614  -0.00914  -0.00740  -0.04971  -0.05703   1.57911
   A12        1.54109   0.00359   0.00019   0.01282   0.01302   1.55412
   A13        2.01465   0.01108  -0.00861   0.07534   0.04591   2.06056
   A14        2.05036   0.00553  -0.00968   0.05149   0.02099   2.07134
   A15        2.20209  -0.01513   0.03993  -0.07892  -0.06004   2.14204
   A16        3.15256  -0.00271  -0.00329  -0.01886  -0.02215   3.13041
   A17        3.11607   0.00392   0.00502   0.02980   0.03482   3.15089
   A18        3.11196   0.00444   0.00626   0.03007   0.03639   3.14835
   A19        3.16788  -0.00364  -0.00498  -0.02660  -0.03154   3.13634
   A20        3.14120  -0.00028   0.00003  -0.00179  -0.00141   3.13979
[...]
 IR Inten    --    237.2371               818.3787               533.4231
  Atom  AN      X      Y      Z        X      Y      Z        X      Y      Z
     1  78     0.00   0.00   0.01     0.00   0.00   0.00     0.00   0.00   0.00
     2  17     0.00   0.00  -0.02     0.00   0.00   0.01     0.00   0.00   0.00
     3  17     0.00   0.00   0.00     0.00   0.00   0.00     0.00   0.00   0.00
     4  35     0.00   0.00   0.00     0.00   0.00   0.00     0.00   0.00   0.00
     5  17     0.00   0.00   0.00     0.00   0.00   0.00     0.00   0.00   0.00
     6  35     0.00   0.00   0.00     0.00   0.00   0.00     0.00   0.00   0.00
     7   7     0.00  -0.08  -0.59     0.00   0.09   0.66     0.82   0.00   0.00
     8   8     0.52   0.03   0.22     0.45  -0.04  -0.28    -0.36   0.02   0.18
     9   8    -0.52   0.03   0.21    -0.45  -0.04  -0.28    -0.36  -0.03  -0.18

 -------------------
 - Thermochemistry -
 -------------------
 Temperature   298.150 Kelvin.  Pressure   1.00000 Atm.
 Atom     1 has atomic number 78 and mass 194.96480
 Atom     2 has atomic number 17 and mass  34.96885
 Atom     3 has atomic number 17 and mass  34.96885
 Atom     4 has atomic number 35 and mass  78.91834
 Atom     5 has atomic number 17 and mass  34.96885
 Atom     6 has atomic number 35 and mass  78.91834
 Atom     7 has atomic number  7 and mass  14.00307
 Atom     8 has atomic number  8 and mass  15.99491
 Atom     9 has atomic number  8 and mass  15.99491
 Molecular mass:   503.70093 amu.
 Principal axes and moments of inertia in atomic units:
                           1         2         3
     Eigenvalues --  4197.900594457.956065088.47927
           X            1.00000  -0.00018  -0.00016
           Y            0.00019   0.99956   0.02982
           Z            0.00015  -0.02982   0.99956
 This molecule is an asymmetric top.
 Rotational symmetry number  1.
 Warning -- assumption of classical behavior for rotation
           may cause significant error
 Rotational temperatures (Kelvin)      0.02063     0.01943     0.01702
 Rotational constants (GHZ):           0.42992     0.40484     0.35467
 Zero-point vibrational energy      44341.5 (Joules/Mol)
                                   10.59787 (Kcal/Mol)
 Warning -- explicit consideration of  18 degrees of freedom as
           vibrations may cause significant error
 Vibrational temperatures:     62.22   120.52   134.61   141.78   155.82
          (Kelvin)            175.47   176.34   189.85   191.96   209.17
                              278.14   288.18   375.29   392.04   407.10
                              427.45   482.83   879.65  1202.10  2021.99
                             2353.60
 
 Zero-point correction=                           0.016889 (Hartree/Particle)
 Thermal correction to Energy=                    0.030460
 Thermal correction to Enthalpy=                  0.031404
 Thermal correction to Gibbs Free Energy=        -0.027410
 Sum of electronic and zero-point Energies=          -6852.524052
 Sum of electronic and thermal Energies=             -6852.510481
 Sum of electronic and thermal Enthalpies=           -6852.509537
 Sum of electronic and thermal Free Energies=        -6852.568351
 
                     E (Thermal)             CV                S
                      KCal/Mol        Cal/Mol-Kelvin    Cal/Mol-Kelvin
 Total                   19.114             39.256            123.784
 Electronic               0.000              0.000              0.000
 Translational            0.889              2.981             44.537
 Rotational               0.889              2.981             32.921
 Vibrational             17.336             33.295             46.325
 Vibration     1          0.595              1.980              5.104
 Vibration     2          0.601              1.960              3.801
 Vibration     3          0.603              1.954              3.584
 Vibration     4          0.604              1.950              3.483
 Vibration     5          0.606              1.943              3.299
 Vibration     6          0.609              1.931              3.069
 Vibration     7          0.610              1.930              3.060
 Vibration     8          0.612              1.921              2.917
 Vibration     9          0.613              1.920              2.896
 Vibration    10          0.617              1.908              2.732
 Vibration    11          0.635              1.849              2.196
 Vibration    12          0.638              1.839              2.130
 Vibration    13          0.669              1.744              1.656
 Vibration    14          0.675              1.724              1.580
 Vibration    15          0.682              1.705              1.516
 Vibration    16          0.691              1.679              1.433
 Vibration    17          0.717              1.604              1.233
 Vibration    18          0.971              1.008              0.430
                       Q            Log10(Q)             Ln(Q)
 Total Bot       0.405178D+13         12.607645         29.030176
 Total V=0       0.237644D+21         20.375927         46.917305
 Vib (Bot)       0.261040D-02         -2.583293         -5.948253
 Vib (Bot)    1  0.478281D+01          0.679683          1.565027
 Vib (Bot)    2  0.245711D+01          0.390425          0.898987
 Vib (Bot)    3  0.219620D+01          0.341672          0.786730
 Vib (Bot)    4  0.208324D+01          0.318739          0.733923
 Vib (Bot)    5  0.189177D+01          0.276867          0.637510
 Vib (Bot)    6  0.167491D+01          0.223992          0.515761
 Vib (Bot)    7  0.166638D+01          0.221773          0.510652
 Vib (Bot)    8  0.154423D+01          0.188711          0.434524
 Vib (Bot)    9  0.152671D+01          0.183757          0.423117
 Vib (Bot)   10  0.139659D+01          0.145070          0.334037
 Vib (Bot)   11  0.103404D+01          0.014535          0.033469
 Vib (Bot)   12  0.995399D+00         -0.002003         -0.004611
 Vib (Bot)   13  0.744341D+00         -0.128228         -0.295256
 Vib (Bot)   14  0.708364D+00         -0.149743         -0.344797
 Vib (Bot)   15  0.678435D+00         -0.168491         -0.387966
 Vib (Bot)   16  0.641176D+00         -0.193023         -0.444451
 Vib (Bot)   17  0.554855D+00         -0.255820         -0.589048
 Vib (Bot)   18  0.241367D+00         -0.617321         -1.421435
 Vib (V=0)       0.153105D+06          5.184988         11.938876
 Vib (V=0)    1  0.530887D+01          0.725002          1.669379
 Vib (V=0)    2  0.300747D+01          0.478201          1.101099
 Vib (V=0)    3  0.275240D+01          0.439712          1.012473
 Vib (V=0)    4  0.264240D+01          0.421999          0.971688
 Vib (V=0)    5  0.245673D+01          0.390357          0.898829
 Vib (V=0)    6  0.224795D+01          0.351787          0.810019
 Vib (V=0)    7  0.223977D+01          0.350204          0.806375
 Vib (V=0)    8  0.212316D+01          0.326982          0.752904
 Vib (V=0)    9  0.210650D+01          0.323562          0.745029
 Vib (V=0)   10  0.198340D+01          0.297410          0.684813
 Vib (V=0)   11  0.164858D+01          0.217109          0.499912
 Vib (V=0)   12  0.161392D+01          0.207882          0.478667
 Vib (V=0)   13  0.139668D+01          0.145098          0.334101
 Vib (V=0)   14  0.136705D+01          0.135785          0.312657
 Vib (V=0)   15  0.134278D+01          0.128004          0.294741
 Vib (V=0)   16  0.131308D+01          0.118293          0.272379
 Vib (V=0)   17  0.124690D+01          0.095833          0.220663
 Vib (V=0)   18  0.105521D+01          0.023339          0.053740
 Electronic      0.100000D+01          0.000000          0.000000
 Translational   0.444339D+09          8.647714         19.912098
 Rotational      0.349321D+07          6.543224         15.066331
 ***** Axes restored to original set *****
 -------------------------------------------------------------------
 Center     Atomic                   Forces (Hartrees/Bohr)
 Number     Number              X              Y              Z
 -------------------------------------------------------------------
      1       78          -0.000212117    0.000179568   -0.000033147
      2       17           0.000060971   -0.000113697   -0.000047079
      3       17          -0.000010572   -0.000009874   -0.000012931
      4       35           0.000051781    0.000058897    0.000002677
      5       17           0.000150748   -0.000065399   -0.000002292
      6       35           0.000019311    0.000037027   -0.000021157
      7        7           0.000007000   -0.000055656   -0.000015475
      8        8          -0.000005801   -0.000026475    0.000096269
      9        8          -0.000061322   -0.000004391    0.000033135
 -------------------------------------------------------------------
 Cartesian Forces:  Max     0.000212117 RMS     0.000074832
 FormGI is forming the generalized inverse of G from B-inverse, IUseBI=4.

 GradGradGradGradGradGradGradGradGradGradGradGradGradGradGradGradGradGrad
 Berny optimization.
 Internal  Forces:  Max     0.000136434 RMS     0.000047804
 Search for a local minimum.
 Step number   1 out of a maximum of    2
 All quantities printed in internal units (Hartrees-Bohrs-Radians)
 Second derivative matrix not updated -- analytic derivatives used.
 ITU=  0
     Eigenvalues ---    0.00197   0.04419   0.05025   0.06429   0.07283
     Eigenvalues ---    0.07326   0.07338   0.07576   0.07936   0.08799
     Eigenvalues ---    0.09686   0.10118   0.10124   0.10960   0.12781
     Eigenvalues ---    0.13177   0.15392   0.19040   0.32928   0.59247
     Eigenvalues ---    0.84812
 Angle between quadratic step and forces=  34.62 degrees.
 Linear search not attempted -- first point.
 Iteration  1 RMS(Cart)=  0.00085211 RMS(Int)=  0.00000024
 Iteration  2 RMS(Cart)=  0.00000031 RMS(Int)=  0.00000008
 Variable       Old X    -DE/DX   Delta X   Delta X   Delta X     New X
                                 (Linear)    (Quad)   (Total)
    R1        4.65541  -0.00012   0.00000  -0.00163  -0.00163   4.65378
    R2        4.57930   0.00000   0.00000  -0.00004  -0.00004   4.57927
    R3        4.82868  -0.00005   0.00000  -0.00074  -0.00074   4.82794
    R4        4.57774   0.00014   0.00000   0.00157   0.00157   4.57931
    R5        4.82799  -0.00001   0.00000  -0.00015  -0.00015   4.82784
    R6        3.97207   0.00007   0.00000   0.00078   0.00078   3.97284
    R7        2.29613  -0.00005   0.00000  -0.00002  -0.00002   2.29611
    R8        2.29613  -0.00002   0.00000  -0.00002  -0.00002   2.29611
    A1        1.57697  -0.00002   0.00000  -0.00020  -0.00020   1.57677
    A2        1.57060  -0.00001   0.00000   0.00005   0.00005   1.57065
    A3        1.57667   0.00004   0.00000   0.00052   0.00052   1.57718
    A4        1.57101   0.00000   0.00000  -0.00013  -0.00013   1.57088
    A5        1.58212  -0.00001   0.00000  -0.00024  -0.00024   1.58188
    A6        1.56067   0.00002   0.00000   0.00034   0.00034   1.56101
    A7        1.55725   0.00009   0.00000   0.00067   0.00067   1.55791
    A8        1.55849   0.00000   0.00000   0.00005   0.00005   1.55854
    A9        1.57741   0.00006   0.00000   0.00030   0.00030   1.57771
   A10        1.58187  -0.00002   0.00000  -0.00015  -0.00015   1.58172
   A11        1.55851  -0.00008   0.00000  -0.00086  -0.00086   1.55765
   A12        1.57797  -0.00006   0.00000  -0.00034  -0.00034   1.57763
   A13        2.05923   0.00007   0.00000   0.00022   0.00022   2.05945
   A14        2.05970  -0.00003   0.00000  -0.00008  -0.00008   2.05962
   A15        2.16417  -0.00004   0.00000  -0.00013  -0.00013   2.16404
   A16        3.13421   0.00006   0.00000   0.00047   0.00047   3.13468
   A17        3.14798  -0.00003   0.00000  -0.00033  -0.00033   3.14765
   A18        3.14727   0.00002   0.00000   0.00056   0.00056   3.14783
   A19        3.13525  -0.00005   0.00000  -0.00035  -0.00035   3.13490
   A20        3.14061  -0.00001   0.00000  -0.00020  -0.00020   3.14041
   A21        3.14036  -0.00002   0.00000  -0.00010  -0.00010   3.14026
    D1       -0.78397   0.00000   0.00000   0.00050   0.00050  -0.78347
    D2        2.34421   0.00002   0.00000   0.00096   0.00096   2.34517
    D3        0.79806  -0.00001   0.00000   0.00026   0.00026   0.79832
    D4       -2.35694   0.00001   0.00000   0.00072   0.00072  -2.35623
    D5       -2.34480  -0.00002   0.00000   0.00015   0.00015  -2.34465
    D6        0.78337   0.00000   0.00000   0.00061   0.00061   0.78399
    D7        2.35660  -0.00001   0.00000   0.00030   0.00030   2.35690
    D8       -0.79841   0.00001   0.00000   0.00076   0.00076  -0.79765
         Item               Value     Threshold  Converged?
 Maximum Force            0.000136     0.000450     YES
 RMS     Force            0.000048     0.000300     YES
 Maximum Displacement     0.002519     0.001800     NO 
 RMS     Displacement     0.000852     0.001200     YES
 Predicted change in Energy=-4.133557D-07
 GradGradGradGradGradGradGradGradGradGradGradGradGradGradGradGradGradGrad

 1\1\GINC-NEQC17\Freq\RB3LYP\Gen\Br2Cl3N1O2Pt1(2-)\DIEGO\18-Aug-2021\0\
 \#N Geom=AllCheck Guess=TCheck SCRF=Check GenChk RB3LYP/ChkBas Freq\\E
 strutura 29\\-2,1\Pt,-0.2984061179,0.3831933236,-0.0589837576\Cl,-0.46
 64350694,2.8363106082,0.0926394039\Cl,-0.2935700695,0.5180531697,-2.47
 84871371\Br,-2.8475949392,0.2082124278,-0.0448459689\Cl,2.1192286195,0
 .5352050456,-0.0702526592\Br,-0.3048984544,0.2245889462,2.4909429246\N
 ,-0.1417325499,-1.7078808727,-0.2037504677\O,-0.8540073063,-2.27884845
 09,-1.0056422003\O,0.6654880771,-2.2703873176,0.5092331324\\Version=EM
 64L-G09RevD.01\State=1-A\HF=-6852.5409407\RMSD=1.377e-09\RMSF=7.483e-0
 5\ZeroPoint=0.0168888\Thermal=0.0304595\Dipole=-0.8063531,-0.5957134,0
 .8151881\DipoleDeriv=1.3884088,0.0171583,-0.1078218,0.0588279,1.009827
 5,-0.0564138,-0.1080678,-0.0154685,1.3894717,-0.2483265,0.0756258,0.01
 4008,0.0903146,-1.6017505,-0.0818149,0.0141237,-0.0659959,-0.2474528,-
 0.1409262,0.00303,0.0273536,0.0203525,-0.1928638,0.066164,0.0297768,0.
 1248196,-1.4965084,-1.2905371,-0.016534,0.0083358,-0.0816585,-0.14562,
 0.0317358,-0.0129549,0.0094073,-0.097339,-1.494763,-0.1336671,0.034486
 1,-0.0749188,-0.1941956,-0.019799,0.0313825,-0.002489,-0.1407861,-0.09
 66592,-0.008956,-0.0172891,-0.0317749,-0.144948,0.0748881,0.0045559,0.
 0093206,-1.290485,1.3567058,-0.2139151,0.8689706,-0.3145642,2.9416922,
 0.3099433,0.869748,0.2101259,1.3477857,-0.6651624,-0.2931308,-0.424804
 2,-0.1815188,-1.8400477,-0.5099691,-0.3991554,-0.565461,-0.7993103,-0.
 8087401,0.5703889,-0.403239,0.5149403,-1.8320942,0.1852657,-0.4294089,
 0.295741,-0.6653757\Polar=209.8799064,-0.6050683,186.8397753,7.1078021
 ,0.8316459,209.8749792\PG=C01 [X(Br2Cl3N1O2Pt1)]\NImag=0\\0.24569671,0
 .00175232,0.20429849,0.00988611,-0.00137521,0.24537556,-0.02086455,0.0
 0275072,-0.00105279,0.01613603,0.00296525,-0.06787247,-0.00269281,-0.0
 0536068,0.08144374,-0.00106422,-0.00245789,-0.02081822,0.00113669,0.00
 496844,0.01604507,-0.01691120,0.00029119,0.00033779,0.00039450,0.00029
 696,0.00015588,0.01378267,-0.00028272,-0.01391287,0.00300844,0.0003225
 1,-0.00102983,-0.00530846,0.00024085,0.01469666,-0.00059239,0.00375008
 ,-0.08315034,0.00001368,-0.00299376,-0.00167572,0.00132333,-0.00559429
 ,0.09519344,-0.06799334,-0.00372703,-0.00105758,-0.00067673,-0.0017395
 7,-0.00057937,-0.00104495,0.00027246,0.00217712,0.08287421,-0.00514304
 ,-0.01298940,-0.00031099,-0.00431418,-0.00149899,-0.00025407,-0.000358
 29,0.00056947,0.00076752,0.00327462,0.01233655,-0.00003277,0.00045125,
 -0.01531467,-0.00053263,0.00030140,-0.00008047,0.00430008,0.00052106,0
 .00070814,0.00139327,0.00127770,0.01204007,-0.08347821,-0.00425150,-0.
 00042789,-0.00174880,0.00299136,0.00000071,0.00090474,0.00018240,-0.00
 347745,-0.01059248,-0.00079386,0.00008832,0.09536315,-0.00352618,-0.01
 396056,0.00027190,0.00531382,-0.00095169,-0.00032837,0.00026760,0.0031
 0206,-0.00022139,-0.00103001,0.00309370,0.00001591,0.00608945,0.014634
 02,0.00049673,-0.00029453,-0.01689773,0.00011994,-0.00029838,0.0003879
 0,-0.00621636,-0.00031594,0.00094969,0.00030709,0.00001575,0.00335755,
 0.00109297,-0.00029046,0.01370623,-0.01531037,-0.00045899,-0.00019165,
 -0.00007004,-0.00027770,-0.00056465,0.00335618,-0.00001154,0.00004539,
 -0.00081900,0.00035772,-0.00648457,0.00078114,-0.00048944,0.00430674,0
 .01197600,0.00031287,-0.01293102,0.00478603,0.00028286,-0.00143957,0.0
 0429193,-0.00001095,0.00310279,0.00070119,-0.00038843,0.00188287,-0.00
 040629,-0.00079684,0.00056529,0.00037693,-0.00122752,0.01227752,-0.001
 19712,0.00337711,-0.06816233,-0.00059828,0.00171984,-0.00069749,0.0002
 6313,0.00093985,-0.01059352,-0.00375921,0.00034815,-0.00077458,0.00213
 562,-0.00027530,-0.00106559,0.00165748,-0.00280579,0.08296623,-0.04714
 660,0.00104545,0.01486453,0.00844409,-0.00122028,-0.00096474,-0.000353
 32,-0.00337464,-0.00017408,-0.00108006,0.00263379,-0.00108701,-0.00093
 013,-0.00135072,-0.00163003,-0.00072831,0.00304529,0.00060300,0.551351
 15,0.00015804,-0.06844728,0.00012574,-0.00075335,0.02187149,0.00063314
 ,-0.00033511,-0.00581325,0.00154757,0.00114658,-0.00387963,-0.00111085
 ,-0.00150910,-0.00579255,0.00035946,0.00112617,-0.00388366,-0.00114410
 ,-0.02948979,0.55067330,0.01487127,-0.00080756,-0.04719874,-0.00097303
 ,0.00117484,0.00843970,-0.00162901,0.00136781,-0.00096101,0.00060998,-
 0.00302884,-0.00071854,-0.00020401,0.00339184,-0.00037557,-0.00106895,
 -0.00263772,-0.00104986,0.38232220,0.03162667,0.54868292,0.00490116,-0
 .00367847,-0.01037129,-0.00056439,-0.00409201,0.00051827,-0.00055829,0
 .00162959,0.00028931,-0.00070027,0.00437304,0.00193397,0.00039999,-0.0
 0015660,0.00055703,0.00038595,-0.00086689,0.00009997,-0.22971834,-0.13
 213027,-0.19526972,0.28958045,-0.01487679,-0.00723310,-0.01861757,0.00
 229880,-0.01527443,0.00064032,-0.00037363,-0.00149377,0.00181103,0.001
 76786,-0.00006608,-0.00123803,-0.00022602,0.00077074,0.00001861,-0.000
 19279,0.00054737,-0.00042345,-0.13803864,-0.24404621,-0.16760242,0.145
 27398,0.21630064,-0.01188646,-0.00630365,0.00129212,0.00139229,-0.0063
 3413,-0.00101267,0.00090856,0.00522318,-0.00086198,0.00081168,0.000317
 78,0.00039867,0.00040745,-0.00101467,0.00043308,0.00041467,0.00003356,
 0.00003428,-0.19710884,-0.16267457,-0.27679683,0.28799851,0.17618736,0
 .33975099,0.00110640,0.00627632,-0.01198723,-0.00105011,0.00643667,0.0
 0136142,0.00042968,0.00102108,0.00039508,0.00003262,-0.00002980,0.0004
 2133,-0.00069939,-0.00511791,0.00096588,0.00042846,-0.00035038,0.00079
 540,-0.27983848,0.16178684,-0.19865872,-0.06372625,0.00436722,-0.08293
 787,0.34331707,0.01864025,-0.00695180,0.01480447,-0.00054048,-0.015248
 24,-0.00218503,-0.00001862,0.00077874,0.00023205,0.00042352,0.00055151
 ,0.00018786,-0.00168588,-0.00146100,0.00042856,0.00117409,-0.00012158,
 -0.00173631,0.16674954,-0.24068220,0.13651539,-0.01035238,0.05049484,-
 0.00543485,-0.17439002,0.21263971,-0.01048115,0.00366040,0.00487434,0.
 00049412,0.00415458,-0.00058810,0.00055659,0.00015834,0.00039129,0.000
 09701,0.00086700,0.00038384,0.00038427,-0.00154945,-0.00049555,0.00188
 553,-0.00433984,-0.00065715,-0.19682502,0.13063694,-0.23002207,-0.0857
 5606,0.00922416,-0.06323766,0.28964471,-0.14281213,0.28935106\\0.00021
 212,-0.00017957,0.00003315,-0.00006097,0.00011370,0.00004708,0.0000105
 7,0.00000987,0.00001293,-0.00005178,-0.00005890,-0.00000268,-0.0001507
 5,0.00006540,0.00000229,-0.00001931,-0.00003703,0.00002116,-0.00000700
 ,0.00005566,0.00001547,0.00000580,0.00002648,-0.00009627,0.00006132,0.
 00000439,-0.00003314\\\@


 LAW OF COMPENSATION:
      NO CALCULATION IS EVER A COMPLETE FAILURE; IT 
      CAN ALWAYS SERVE AS A BAD EXAMPLE.

                                           -- ANON
 Job cpu time:       0 days  0 hours 12 minutes 42.7 seconds.
 File lengths (MBytes):  RWF=     98 Int=      0 D2E=      0 Chk=      7 Scr=      1
 Normal termination of Gaussian 09 at Wed Aug 18 04:08:10 2021.
