 Entering Gaussian System, Link 0=g09
 Input=estrutura30_D2O.com
 Output=estrutura30_D2O.log
 Initial command:
 /home/scr/programs/g09/l1.exe "/home/scr/diego/Gau-14294.inp" -scrdir="/home/scr/diego/"
 Entering Link 1 = /home/scr/programs/g09/l1.exe PID=     14296.
  
 Copyright (c) 1988,1990,1992,1993,1995,1998,2003,2009,2013,
            Gaussian, Inc.  All Rights Reserved.
  
 This is part of the Gaussian(R) 09 program.  It is based on
 the Gaussian(R) 03 system (copyright 2003, Gaussian, Inc.),
 the Gaussian(R) 98 system (copyright 1998, Gaussian, Inc.),
 the Gaussian(R) 94 system (copyright 1995, Gaussian, Inc.),
 the Gaussian 92(TM) system (copyright 1992, Gaussian, Inc.),
 the Gaussian 90(TM) system (copyright 1990, Gaussian, Inc.),
 the Gaussian 88(TM) system (copyright 1988, Gaussian, Inc.),
 the Gaussian 86(TM) system (copyright 1986, Carnegie Mellon
 University), and the Gaussian 82(TM) system (copyright 1983,
 Carnegie Mellon University). Gaussian is a federally registered
 trademark of Gaussian, Inc.
  
 This software contains proprietary and confidential information,
 including trade secrets, belonging to Gaussian, Inc.
  
 This software is provided under written license and may be
 used, copied, transmitted, or stored only in accord with that
 written license.
  
 The following legend is applicable only to US Government
 contracts under FAR:
  
                    RESTRICTED RIGHTS LEGEND
  
 Use, reproduction and disclosure by the US Government is
 subject to restrictions as set forth in subparagraphs (a)
 and (c) of the Commercial Computer Software - Restricted
 Rights clause in FAR 52.227-19.
  
 Gaussian, Inc.
 340 Quinnipiac St., Bldg. 40, Wallingford CT 06492
  
  
 ---------------------------------------------------------------
 Warning -- This program may not be used in any manner that
 competes with the business of Gaussian, Inc. or will provide
 assistance to any competitor of Gaussian, Inc.  The licensee
 of this program is prohibited from giving any competitor of
 Gaussian, Inc. access to this program.  By using this program,
 the user acknowledges that Gaussian, Inc. is engaged in the
 business of creating and licensing software in the field of
 computational chemistry and represents and warrants to the
 licensee that it is not a competitor of Gaussian, Inc. and that
 it will not use this program in any manner prohibited above.
 ---------------------------------------------------------------
  

 Cite this work as:
 Gaussian 09, Revision D.01,
 M. J. Frisch, G. W. Trucks, H. B. Schlegel, G. E. Scuseria, 
 M. A. Robb, J. R. Cheeseman, G. Scalmani, V. Barone, B. Mennucci, 
 G. A. Petersson, H. Nakatsuji, M. Caricato, X. Li, H. P. Hratchian, 
 A. F. Izmaylov, J. Bloino, G. Zheng, J. L. Sonnenberg, M. Hada, 
 M. Ehara, K. Toyota, R. Fukuda, J. Hasegawa, M. Ishida, T. Nakajima, 
 Y. Honda, O. Kitao, H. Nakai, T. Vreven, J. A. Montgomery, Jr., 
 J. E. Peralta, F. Ogliaro, M. Bearpark, J. J. Heyd, E. Brothers, 
 K. N. Kudin, V. N. Staroverov, T. Keith, R. Kobayashi, J. Normand, 
 K. Raghavachari, A. Rendell, J. C. Burant, S. S. Iyengar, J. Tomasi, 
 M. Cossi, N. Rega, J. M. Millam, M. Klene, J. E. Knox, J. B. Cross, 
 V. Bakken, C. Adamo, J. Jaramillo, R. Gomperts, R. E. Stratmann, 
 O. Yazyev, A. J. Austin, R. Cammi, C. Pomelli, J. W. Ochterski, 
 R. L. Martin, K. Morokuma, V. G. Zakrzewski, G. A. Voth, 
 P. Salvador, J. J. Dannenberg, S. Dapprich, A. D. Daniels, 
 O. Farkas, J. B. Foresman, J. V. Ortiz, J. Cioslowski, 
 and D. J. Fox, Gaussian, Inc., Wallingford CT, 2013.
 
 ******************************************
 Gaussian 09:  EM64L-G09RevD.01 24-Apr-2013
                18-Aug-2021 
 ******************************************
 %mem=15gb
 %nproc=8
 Will use up to    8 processors via shared memory.
 ------------------------------------------------------------
 #b3lyp/gen pseudo=read opt freq=noraman scrf=(solvent=water)
 ------------------------------------------------------------
 1/14=-1,18=20,19=15,26=3,38=1/1,3;
 2/9=110,12=2,17=6,18=5,40=1/2;
 3/5=7,11=2,16=1,17=8,25=1,30=1,70=2201,71=1,72=1,74=-5/1,2,3;
 4//1;
 5/5=2,38=5,53=1/2;
 6/7=2,8=2,9=2,10=2,28=1/1;
 7//1,2,3,16;
 1/14=-1,18=20,19=15,26=3/3(2);
 2/9=110/2;
 99//99;
 2/9=110/2;
 3/5=7,6=1,11=2,16=1,17=8,25=1,30=1,70=2205,71=1,72=1,74=-5,82=7/1,2,3;
 4/5=5,16=3,69=1/1;
 5/5=2,38=5,53=1/2;
 7//1,2,3,16;
 1/14=-1,18=20,19=15,26=3/3(-5);
 2/9=110/2;
 6/7=2,8=2,9=2,10=2,19=2,28=1/1;
 99/9=1/99;
 ------------
 Estrutura 30
 ------------
 Symbolic Z-matrix:
 Charge = -2 Multiplicity = 1
 Pt                   -0.31955   0.33835   0. 
 Cl                   -0.31955   2.61835   0. 
 Cl                   -0.31955   0.33835  -2.28 
 Br                   -2.74955   0.33835   0. 
 Br                   -0.31955   0.33835   2.43 
 Cl                   -0.31955  -1.65165   0. 
 N                     1.67045   0.33835   0. 
 O                     2.12378  -0.75896  -0.66334 
 O                     2.12378   1.46147  -0.61862 
 

 GradGradGradGradGradGradGradGradGradGradGradGradGradGradGradGradGradGrad
 Berny optimization.
 Initialization pass.
                           ----------------------------
                           !    Initial Parameters    !
                           ! (Angstroms and Degrees)  !
 --------------------------                            --------------------------
 ! Name  Definition              Value          Derivative Info.                !
 --------------------------------------------------------------------------------
 ! R1    R(1,2)                  2.28           estimate D2E/DX2                !
 ! R2    R(1,3)                  2.28           estimate D2E/DX2                !
 ! R3    R(1,4)                  2.43           estimate D2E/DX2                !
 ! R4    R(1,5)                  2.43           estimate D2E/DX2                !
 ! R5    R(1,6)                  1.99           estimate D2E/DX2                !
 ! R6    R(1,7)                  1.99           estimate D2E/DX2                !
 ! R7    R(7,8)                  1.36           estimate D2E/DX2                !
 ! R8    R(7,9)                  1.36           estimate D2E/DX2                !
 ! A1    A(2,1,3)               90.0            estimate D2E/DX2                !
 ! A2    A(2,1,4)               90.0            estimate D2E/DX2                !
 ! A3    A(2,1,5)               90.0            estimate D2E/DX2                !
 ! A4    A(2,1,7)               90.0            estimate D2E/DX2                !
 ! A5    A(3,1,4)               90.0            estimate D2E/DX2                !
 ! A6    A(3,1,6)               90.0            estimate D2E/DX2                !
 ! A7    A(3,1,7)               90.0            estimate D2E/DX2                !
 ! A8    A(4,1,5)               90.0            estimate D2E/DX2                !
 ! A9    A(4,1,6)               90.0            estimate D2E/DX2                !
 ! A10   A(5,1,6)               90.0            estimate D2E/DX2                !
 ! A11   A(5,1,7)               90.0            estimate D2E/DX2                !
 ! A12   A(6,1,7)               90.0            estimate D2E/DX2                !
 ! A13   A(1,7,8)              109.4712         estimate D2E/DX2                !
 ! A14   A(1,7,9)              109.4712         estimate D2E/DX2                !
 ! A15   A(8,7,9)              109.4713         estimate D2E/DX2                !
 ! A16   L(2,1,6,3,-1)         180.0            estimate D2E/DX2                !
 ! A17   L(3,1,5,2,-1)         180.0            estimate D2E/DX2                !
 ! A18   L(4,1,7,2,-1)         180.0            estimate D2E/DX2                !
 ! A19   L(2,1,6,3,-2)         180.0            estimate D2E/DX2                !
 ! A20   L(3,1,5,2,-2)         180.0            estimate D2E/DX2                !
 ! A21   L(4,1,7,2,-2)         180.0            estimate D2E/DX2                !
 ! D1    D(2,1,7,8)           -148.8462         estimate D2E/DX2                !
 ! D2    D(2,1,7,9)            -28.8462         estimate D2E/DX2                !
 ! D3    D(3,1,7,8)            -58.8462         estimate D2E/DX2                !
 ! D4    D(3,1,7,9)             61.1538         estimate D2E/DX2                !
 ! D5    D(5,1,7,8)            121.1538         estimate D2E/DX2                !
 ! D6    D(5,1,7,9)           -118.8462         estimate D2E/DX2                !
 ! D7    D(6,1,7,8)             31.1538         estimate D2E/DX2                !
 ! D8    D(6,1,7,9)            151.1538         estimate D2E/DX2                !
 --------------------------------------------------------------------------------
 Trust Radius=3.00D-01 FncErr=1.00D-07 GrdErr=1.00D-06
 Number of steps in this run=     47 maximum allowed number of steps=    100.
 GradGradGradGradGradGradGradGradGradGradGradGradGradGradGradGradGradGrad

                          Input orientation:                          
 ---------------------------------------------------------------------
 Center     Atomic      Atomic             Coordinates (Angstroms)
 Number     Number       Type             X           Y           Z
 ---------------------------------------------------------------------
      1         78           0       -0.319549    0.338346    0.000000
      2         17           0       -0.319549    2.618346    0.000000
      3         17           0       -0.319549    0.338346   -2.280000
      4         35           0       -2.749549    0.338346    0.000000
      5         35           0       -0.319549    0.338346    2.430000
      6         17           0       -0.319549   -1.651654    0.000000
      7          7           0        1.670451    0.338346    0.000000
      8          8           0        2.123784   -0.758955   -0.663340
      9          8           0        2.123784    1.461466   -0.618620
 ---------------------------------------------------------------------
                    Distance matrix (angstroms):
                    1          2          3          4          5
     1  Pt   0.000000
     2  Cl   2.280000   0.000000
     3  Cl   2.280000   3.224407   0.000000
     4  Br   2.430000   3.332161   3.332161   0.000000
     5  Br   2.430000   3.332161   4.710000   3.436539   0.000000
     6  Cl   1.990000   4.270000   3.026301   3.140860   3.140860
     7  N    1.990000   3.026301   3.026301   4.420000   3.140860
     8  O    2.759341   4.220907   3.128504   5.039193   4.091784
     9  O    2.759341   2.773254   3.160927   5.039193   4.065139
                    6          7          8          9
     6  Cl   0.000000
     7  N    2.814285   0.000000
     8  O    2.684550   1.360000   0.000000
     9  O    4.005507   1.360000   2.220871   0.000000
 Stoichiometry    Br2Cl3NO2Pt(2-)
 Framework group  C1[X(Br2Cl3NO2Pt)]
 Deg. of freedom    21
 Full point group                 C1      NOp   1
 Largest Abelian subgroup         C1      NOp   1
 Largest concise Abelian subgroup C1      NOp   1
                         Standard orientation:                         
 ---------------------------------------------------------------------
 Center     Atomic      Atomic             Coordinates (Angstroms)
 Number     Number       Type             X           Y           Z
 ---------------------------------------------------------------------
      1         78           0       -0.201598   -0.080226   -0.024826
      2         17           0       -0.221100   -0.079169    2.255091
      3         17           0       -1.225744   -2.117249   -0.032641
      4         35           0        1.969356   -1.171782   -0.005749
      5         35           0        0.889927    2.090812   -0.016496
      6         17           0       -0.184576   -0.081149   -2.014753
      7          7           0       -1.979458    0.813682   -0.040448
      8          8           0       -2.673042    0.424161   -1.143541
      9          8           0       -2.671947    0.465145    1.076951
 ---------------------------------------------------------------------
 Rotational constants (GHZ):      0.5121160      0.4704576      0.3765369
 General basis read from cards:  (5D, 7F)
 ======================================================================================================
                                       Pseudopotential Parameters
 ======================================================================================================
  Center     Atomic      Valence      Angular      Power
  Number     Number     Electrons     Momentum     of R      Exponent        Coefficient   SO-Coeffient
 ======================================================================================================
    1         78           18
                                      G and up 
                                                     1      728.9394056       -0.16192680    0.00000000
                                                     2      320.6567800    -1320.28738520    0.00000000
                                                     2       52.8680174     -298.31781350    0.00000000
                                                     2       12.0280128      -87.58370650    0.00000000
                                                     2        3.5238913       -8.14932740    0.00000000
                                      S - G
                                                     0      409.4437358        2.73342180    0.00000000
                                                     1      274.5419231       59.70243290    0.00000000
                                                     2      127.5658570      891.45895500    0.00000000
                                                     2       32.9036631      368.44676560    0.00000000
                                                     2        5.0593880      238.02630900    0.00000000
                                                     2        4.1506556     -107.05564540    0.00000000
                                      P - G
                                                     0      466.1728892        1.88785680    0.00000000
                                                     1      120.7888259       76.01386290    0.00000000
                                                     2       36.4118791      343.55111160    0.00000000
                                                     2        5.6985408      119.49117860    0.00000000
                                      D - G
                                                     0      249.5650763        2.93436780    0.00000000
                                                     1      126.6678585       59.33065710    0.00000000
                                                     2       63.1430586      452.44451940    0.00000000
                                                     2       17.9059470      210.47694790    0.00000000
                                                     2        4.2239373       58.62541120    0.00000000
                                      F - G
                                                     0      121.8158799        3.95342530    0.00000000
                                                     1       60.8757030       53.85551820    0.00000000
                                                     2       31.4767147      247.43051330    0.00000000
                                                     2        9.8811751      127.81879760    0.00000000
                                                     2        2.7319874       15.37720460    0.00000000
    2         17
                                   No pseudopotential on this center.
    3         17
                                   No pseudopotential on this center.
    4         35
                                   No pseudopotential on this center.
    5         35
                                   No pseudopotential on this center.
    6         17
                                   No pseudopotential on this center.
    7          7
                                   No pseudopotential on this center.
    8          8
                                   No pseudopotential on this center.
    9          8
                                   No pseudopotential on this center.
 ======================================================================================================
 There are   196 symmetry adapted cartesian basis functions of A   symmetry.
 There are   182 symmetry adapted basis functions of A   symmetry.
   182 basis functions,   389 primitive gaussians,   196 cartesian basis functions
    82 alpha electrons       82 beta electrons
       nuclear repulsion energy      1918.2145409233 Hartrees.
 NAtoms=    9 NActive=    9 NUniq=    9 SFac= 1.00D+00 NAtFMM=   60 NAOKFM=F Big=F
 Integral buffers will be    131072 words long.
 Raffenetti 2 integral format.
 Two-electron integral symmetry is turned on.
 ------------------------------------------------------------------------------
 Polarizable Continuum Model (PCM)
 =================================
 Model                : PCM (using non-symmetric T matrix).
 Atomic radii         : UFF (Universal Force Field).
 Polarization charges : Total charges.
 Charge compensation  : None.
 Solution method      : On-the-fly selection.
 Cavity type          : Scaled VdW (van der Waals Surface) (Alpha=1.100).
 Cavity algorithm     : GePol (No added spheres)
                        Default sphere list used, NSphG=    9.
                        Lebedev-Laikov grids with approx.  5.0 points / Ang**2.
                        Smoothing algorithm: Karplus/York (Gamma=1.0000).
                        Polarization charges: spherical gaussians, with
                                              point-specific exponents (IZeta= 3).
                        Self-potential: point-specific (ISelfS= 7).
                        Self-field    : sphere-specific E.n sum rule (ISelfD= 2).
 1st derivatives      : Analytical E(r).r(x)/FMM algorithm (CHGder, D1EAlg=3).
                        Cavity 1st derivative terms included.
 Solvent              : Water, Eps=  78.355300 Eps(inf)=   1.777849
 ------------------------------------------------------------------------------
 Spheres list:
 ISph  on   Nord     Re0    Alpha      Xe            Ye            Ze
    1  Pt      1    1.3770  1.100     -0.201598     -0.080226     -0.024826
    2  Cl      2    1.9735  1.100     -0.221100     -0.079169      2.255091
    3  Cl      3    1.9735  1.100     -1.225744     -2.117249     -0.032641
    4  Br      4    2.0945  1.100      1.969356     -1.171782     -0.005749
    5  Br      5    2.0945  1.100      0.889927      2.090812     -0.016496
    6  Cl      6    1.9735  1.100     -0.184576     -0.081149     -2.014753
    7   N      7    1.8300  1.100     -1.979458      0.813682     -0.040448
    8   O      8    1.7500  1.100     -2.673042      0.424161     -1.143541
    9   O      9    1.7500  1.100     -2.671947      0.465145      1.076951
 ------------------------------------------------------------------------------
 One-electron integrals computed using PRISM.
   1 Symmetry operations used in ECPInt.
 ECPInt:  NShTT=    2775 NPrTT=   14060 LenC2=    2561 LenP2D=    9082.
 LDataN:  DoStor=T MaxTD1= 6 Len=  172
 NBasis=   182 RedAO= T EigKep=  4.22D-03  NBF=   182
 NBsUse=   182 1.00D-06 EigRej= -1.00D+00 NBFU=   182
 Defaulting to unpruned grid for atomic number  78.
 ExpMin= 2.90D-02 ExpMax= 1.13D+05 ExpMxC= 1.70D+04 IAcc=3 IRadAn=         5 AccDes= 0.00D+00
 Harris functional with IExCor=  402 and IRadAn=       5 diagonalized for initial guess.
 HarFok:  IExCor=  402 AccDes= 0.00D+00 IRadAn=         5 IDoV= 1 UseB2=F ITyADJ=14
 ICtDFT=  3500011 ScaDFX=  1.000000  1.000000  1.000000  1.000000
 Defaulting to unpruned grid for atomic number  78.
 Defaulting to unpruned grid for atomic number  78.
 Defaulting to unpruned grid for atomic number  78.
 Defaulting to unpruned grid for atomic number  78.
 Defaulting to unpruned grid for atomic number  78.
 Defaulting to unpruned grid for atomic number  78.
 Defaulting to unpruned grid for atomic number  78.
 Defaulting to unpruned grid for atomic number  78.
 FoFCou: FMM=F IPFlag=           0 FMFlag=      100000 FMFlg1=           0
         NFxFlg=           0 DoJE=T BraDBF=F KetDBF=T FulRan=T
         wScrn=  0.000000 ICntrl=     500 IOpCl=  0 I1Cent=   200000004 NGrid=           0
         NMat0=    1 NMatS0=      1 NMatT0=    0 NMatD0=    1 NMtDS0=    0 NMtDT0=    0
 Petite list used in FoFCou.
 Keep R1 ints in memory in canonical form, NReq=144128079.
 Requested convergence on RMS density matrix=1.00D-08 within 128 cycles.
 Requested convergence on MAX density matrix=1.00D-06.
 Requested convergence on             energy=1.00D-06.
 No special actions if energy rises.
 Defaulting to unpruned grid for atomic number  78.
 Defaulting to unpruned grid for atomic number  78.
 Defaulting to unpruned grid for atomic number  78.
 Defaulting to unpruned grid for atomic number  78.
 Defaulting to unpruned grid for atomic number  78.
 Defaulting to unpruned grid for atomic number  78.
 Defaulting to unpruned grid for atomic number  78.
 Defaulting to unpruned grid for atomic number  78.
 Inv3:  Mode=1 IEnd=     5922075.
 Iteration    1 A*A^-1 deviation from unit magnitude is 6.11D-15 for   1012.
 Iteration    1 A*A^-1 deviation from orthogonality  is 3.63D-15 for    339    102.
 Iteration    1 A^-1*A deviation from unit magnitude is 6.00D-15 for    589.
 Iteration    1 A^-1*A deviation from orthogonality  is 1.72D-15 for    986    355.
 EnCoef did   100 forward-backward iterations
 EnCoef did     3 forward-backward iterations
 Error on total polarization charges =  0.01598
 SCF Done:  E(RB3LYP) =  -6852.35658024     A.U. after   19 cycles
            NFock= 19  Conv=0.42D-08     -V/T= 2.0135

 **********************************************************************

            Population analysis using the SCF density.

 **********************************************************************

 Orbital symmetries:
       Occupied  (A) (A) (A) (A) (A) (A) (A) (A) (A) (A) (A) (A)
                 (A) (A) (A) (A) (A) (A) (A) (A) (A) (A) (A) (A)
                 (A) (A) (A) (A) (A) (A) (A) (A) (A) (A) (A) (A)
                 (A) (A) (A) (A) (A) (A) (A) (A) (A) (A) (A) (A)
                 (A) (A) (A) (A) (A) (A) (A) (A) (A) (A) (A) (A)
                 (A) (A) (A) (A) (A) (A) (A) (A) (A) (A) (A) (A)
                 (A) (A) (A) (A) (A) (A) (A) (A) (A) (A)
       Virtual   (A) (A) (A) (A) (A) (A) (A) (A) (A) (A) (A) (A)
                 (A) (A) (A) (A) (A) (A) (A) (A) (A) (A) (A) (A)
                 (A) (A) (A) (A) (A) (A) (A) (A) (A) (A) (A) (A)
                 (A) (A) (A) (A) (A) (A) (A) (A) (A) (A) (A) (A)
                 (A) (A) (A) (A) (A) (A) (A) (A) (A) (A) (A) (A)
                 (A) (A) (A) (A) (A) (A) (A) (A) (A) (A) (A) (A)
                 (A) (A) (A) (A) (A) (A) (A) (A) (A) (A) (A) (A)
                 (A) (A) (A) (A) (A) (A) (A) (A) (A) (A) (A) (A)
                 (A) (A) (A) (A)
 The electronic state is 1-A.
 Alpha  occ. eigenvalues -- -482.74750-482.74701-101.44657-101.44229-101.42003
 Alpha  occ. eigenvalues --  -62.42919 -62.42868 -56.26109 -56.26061 -56.25815
 Alpha  occ. eigenvalues --  -56.25813 -56.25763 -56.25761 -19.13642 -19.13552
 Alpha  occ. eigenvalues --  -14.48921  -9.40270  -9.40030  -9.37458  -8.64693
 Alpha  occ. eigenvalues --   -8.64641  -7.17113  -7.16831  -7.16124  -7.16078
 Alpha  occ. eigenvalues --   -7.15994  -7.15976  -7.14175  -7.13472  -7.13430
 Alpha  occ. eigenvalues --   -6.47894  -6.47850  -6.46822  -6.46816  -6.46766
 Alpha  occ. eigenvalues --   -6.46761  -4.02078  -2.59346  -2.59300  -2.59044
 Alpha  occ. eigenvalues --   -2.59039  -2.58994  -2.58991  -2.58196  -2.58196
 Alpha  occ. eigenvalues --   -2.58138  -2.58138  -2.24229  -2.23555  -2.23167
 Alpha  occ. eigenvalues --   -1.08454  -0.92428  -0.80553  -0.76080  -0.73726
 Alpha  occ. eigenvalues --   -0.72854  -0.72227  -0.64488  -0.49195  -0.46366
 Alpha  occ. eigenvalues --   -0.45770  -0.44293  -0.43098  -0.41433  -0.41262
 Alpha  occ. eigenvalues --   -0.37480  -0.35941  -0.32000  -0.31652  -0.28104
 Alpha  occ. eigenvalues --   -0.26607  -0.26339  -0.26141  -0.25617  -0.25478
 Alpha  occ. eigenvalues --   -0.25304  -0.24954  -0.24447  -0.24280  -0.23858
 Alpha  occ. eigenvalues --   -0.22349  -0.20881
 Alpha virt. eigenvalues --   -0.12555  -0.06805  -0.02750   0.05451   0.05996
 Alpha virt. eigenvalues --    0.06134   0.16002   0.20106   0.20213   0.26332
 Alpha virt. eigenvalues --    0.27863   0.28851   0.37781   0.38515   0.39477
 Alpha virt. eigenvalues --    0.42742   0.44751   0.46144   0.48346   0.55633
 Alpha virt. eigenvalues --    0.56372   0.56619   0.57164   0.58544   0.61631
 Alpha virt. eigenvalues --    0.61858   0.62590   0.64281   0.65911   0.67442
 Alpha virt. eigenvalues --    0.68202   0.70241   0.71806   0.72339   0.72827
 Alpha virt. eigenvalues --    0.75410   0.75759   0.77451   0.78097   0.78222
 Alpha virt. eigenvalues --    0.80219   0.80557   0.81932   0.82784   0.83283
 Alpha virt. eigenvalues --    0.83633   0.86079   0.89433   0.89997   0.93652
 Alpha virt. eigenvalues --    0.94484   0.97674   0.98555   1.00446   1.03580
 Alpha virt. eigenvalues --    1.04456   1.05146   1.07528   1.09378   1.11274
 Alpha virt. eigenvalues --    1.13240   1.15313   1.16727   1.22405   1.23948
 Alpha virt. eigenvalues --    1.24514   1.27822   1.29010   1.29271   1.36659
 Alpha virt. eigenvalues --    1.42481   1.49173   1.50213   1.53720   1.95493
 Alpha virt. eigenvalues --    1.98036   2.04995   2.32174   2.34072   2.65994
 Alpha virt. eigenvalues --    2.67618   2.68036   2.69693   2.76706   2.98388
 Alpha virt. eigenvalues --    3.01924   3.22859   3.45040   3.45290   3.47218
 Alpha virt. eigenvalues --    3.47439   3.50976   3.53127   3.54570   3.61440
 Alpha virt. eigenvalues --    3.65065   3.71151   3.72766   3.80339   7.15821
          Condensed to atoms (all electrons):
               1          2          3          4          5          6
     1  Pt  17.467442   0.261416   0.221719   0.222435   0.198813  -0.049062
     2  Cl   0.261416  17.107596  -0.016617  -0.014347  -0.021282  -0.005352
     3  Cl   0.221719  -0.016617  17.099491  -0.024359  -0.003234  -0.037308
     4  Br   0.222435  -0.014347  -0.024359  34.996369  -0.023710  -0.030023
     5  Br   0.198813  -0.021282  -0.003234  -0.023710  35.055830  -0.046899
     6  Cl  -0.049062  -0.005352  -0.037308  -0.030023  -0.046899  17.641872
     7  N   -0.020159  -0.008710  -0.019054  -0.004400  -0.020610  -0.045879
     8  O   -0.004742   0.000159  -0.000696   0.000092   0.000448  -0.029849
     9  O   -0.006912  -0.020919  -0.000399   0.000097   0.000262   0.000537
               7          8          9
     1  Pt  -0.020159  -0.004742  -0.006912
     2  Cl  -0.008710   0.000159  -0.020919
     3  Cl  -0.019054  -0.000696  -0.000399
     4  Br  -0.004400   0.000092   0.000097
     5  Br  -0.020610   0.000448   0.000262
     6  Cl  -0.045879  -0.029849   0.000537
     7  N    6.747211   0.181304   0.182345
     8  O    0.181304   8.231596  -0.095855
     9  O    0.182345  -0.095855   8.214098
 Mulliken charges:
               1
     1  Pt  -0.290950
     2  Cl  -0.281944
     3  Cl  -0.219543
     4  Br  -0.122153
     5  Br  -0.139616
     6  Cl  -0.398037
     7  N    0.007953
     8  O   -0.282458
     9  O   -0.273253
 Sum of Mulliken charges =  -2.00000
 Mulliken charges with hydrogens summed into heavy atoms:
               1
     1  Pt  -0.290950
     2  Cl  -0.281944
     3  Cl  -0.219543
     4  Br  -0.122153
     5  Br  -0.139616
     6  Cl  -0.398037
     7  N    0.007953
     8  O   -0.282458
     9  O   -0.273253
 Electronic spatial extent (au):  <R**2>=           3152.9573
 Charge=             -2.0000 electrons
 Dipole moment (field-independent basis, Debye):
    X=              4.3625    Y=              1.4362    Z=             -1.4040  Tot=              4.8026
 Quadrupole moment (field-independent basis, Debye-Ang):
   XX=           -149.5285   YY=           -136.8182   ZZ=           -143.1236
   XY=             -1.3874   XZ=              0.1541   YZ=             -0.0188
 Traceless Quadrupole moment (field-independent basis, Debye-Ang):
   XX=             -6.3717   YY=              6.3386   ZZ=              0.0332
   XY=             -1.3874   XZ=              0.1541   YZ=             -0.0188
 Octapole moment (field-independent basis, Debye-Ang**2):
  XXX=             89.2163  YYY=             22.2428  ZZZ=            -15.5717  XYY=             12.3722
  XXY=              5.4259  XXZ=             -0.5533  XZZ=             25.9059  YZZ=              4.1575
  YYZ=             -1.2930  XYZ=              0.3102
 Hexadecapole moment (field-independent basis, Debye-Ang**3):
 XXXX=          -1602.9366 YYYY=          -1245.5749 ZZZZ=          -1032.0371 XXXY=              0.4694
 XXXZ=             -1.7593 YYYX=            -27.6689 YYYZ=             -0.5985 ZZZX=              1.5910
 ZZZY=              0.7065 XXYY=           -447.6052 XXZZ=           -433.7992 YYZZ=           -368.6344
 XXYZ=             -0.8103 YYXZ=              0.5251 ZZXY=              0.9853
 N-N= 1.918214540923D+03 E-N=-2.020581578084D+04  KE= 6.761263594461D+03
   1 Symmetry operations used in ECPInt.
 ECPInt:  NShTT=    2775 NPrTT=   14060 LenC2=    2561 LenP2D=    9082.
 LDataN:  DoStor=T MaxTD1= 7 Len=  274
 D1PCM: PCM CHGder 1st derivatives, ID1Alg=3 FixD1E=F DoIter=F DoCFld=F I1PDM=0.
 Calling FoFJK, ICntrl=      2127 FMM=F ISym2X=0 I1Cent= 0 IOpClX= 0 NMat=1 NMatS=1 NMatT=0.
 Defaulting to unpruned grid for atomic number  78.
 Defaulting to unpruned grid for atomic number  78.
 Defaulting to unpruned grid for atomic number  78.
 Defaulting to unpruned grid for atomic number  78.
 Defaulting to unpruned grid for atomic number  78.
 Defaulting to unpruned grid for atomic number  78.
 Defaulting to unpruned grid for atomic number  78.
 Defaulting to unpruned grid for atomic number  78.
 ***** Axes restored to original set *****
 -------------------------------------------------------------------
 Center     Atomic                   Forces (Hartrees/Bohr)
 Number     Number              X              Y              Z
 -------------------------------------------------------------------
      1       78          -0.026332205    0.169571965    0.035847931
      2       17          -0.010084399    0.058391861    0.003511418
      3       17           0.001156787    0.001566407   -0.048037492
      4       35          -0.033850184    0.001415051   -0.002745719
      5       35           0.000560842    0.001843689    0.037142569
      6       17          -0.012209412   -0.234154215    0.004379297
      7        7           0.106930936    0.005493025   -0.180273828
      8        8          -0.011517036    0.067562398    0.075264160
      9        8          -0.014655329   -0.071690181    0.074911664
 -------------------------------------------------------------------
 Cartesian Forces:  Max     0.234154215 RMS     0.076834195

 GradGradGradGradGradGradGradGradGradGradGradGradGradGradGradGradGradGrad
 Berny optimization.
 FormGI is forming the generalized inverse of G from B-inverse, IUseBI=4.
 Internal  Forces:  Max     0.234153910 RMS     0.051306026
 Search for a local minimum.
 Step number   1 out of a maximum of   47
 All quantities printed in internal units (Hartrees-Bohrs-Radians)
 Mixed Optimization -- RFO/linear search
 Second derivative matrix not updated -- first step.
 ITU=  0
     Eigenvalues ---    0.00230   0.04734   0.08487   0.08931   0.12615
     Eigenvalues ---    0.12615   0.12615   0.13281   0.16743   0.19509
     Eigenvalues ---    0.19509   0.20378   0.22001   0.22001   0.25000
     Eigenvalues ---    0.25000   0.25000   0.25000   0.52948   0.52948
     Eigenvalues ---    0.57823
 RFO step:  Lambda=-1.70989502D-01 EMin= 2.30000000D-03
 Linear search not attempted -- first point.
 Maximum step size (   0.300) exceeded in Quadratic search.
    -- Step size scaled by   0.558
 Iteration  1 RMS(Cart)=  0.07562364 RMS(Int)=  0.00298431
 Iteration  2 RMS(Cart)=  0.00294554 RMS(Int)=  0.00165650
 Iteration  3 RMS(Cart)=  0.00001739 RMS(Int)=  0.00165645
 Iteration  4 RMS(Cart)=  0.00000012 RMS(Int)=  0.00165645
 Variable       Old X    -DE/DX   Delta X   Delta X   Delta X     New X
                                 (Linear)    (Quad)   (Total)
    R1        4.30858   0.05839   0.00000   0.08330   0.08330   4.39187
    R2        4.30858   0.04805   0.00000   0.06854   0.06854   4.37711
    R3        4.59203   0.03385   0.00000   0.05158   0.05158   4.64361
    R4        4.59203   0.03713   0.00000   0.05658   0.05658   4.64861
    R5        3.76056   0.23415   0.00000   0.17432   0.17432   3.93487
    R6        3.76056   0.08078   0.00000   0.12022   0.12022   3.88077
    R7        2.57003  -0.09508   0.00000  -0.07571  -0.07571   2.49432
    R8        2.57003  -0.09817   0.00000  -0.07817  -0.07817   2.49186
    A1        1.57080   0.00139   0.00000   0.00291   0.00296   1.57376
    A2        1.57080  -0.01249   0.00000  -0.02331  -0.02330   1.54750
    A3        1.57080  -0.00393   0.00000  -0.00845  -0.00846   1.56234
    A4        1.57080   0.00866   0.00000   0.01613   0.01615   1.58695
    A5        1.57080  -0.00192   0.00000  -0.00400  -0.00403   1.56677
    A6        1.57080   0.00386   0.00000   0.00833   0.00843   1.57923
    A7        1.57080  -0.00520   0.00000  -0.00937  -0.00934   1.56146
    A8        1.57080   0.00380   0.00000   0.00752   0.00748   1.57827
    A9        1.57080  -0.00986   0.00000  -0.01772  -0.01767   1.55313
   A10        1.57080  -0.00132   0.00000  -0.00279  -0.00280   1.56800
   A11        1.57080   0.00332   0.00000   0.00585   0.00585   1.57665
   A12        1.57080   0.01369   0.00000   0.02490   0.02496   1.59576
   A13        1.91063   0.04898   0.00000   0.07883   0.07446   1.98510
   A14        1.91063   0.04321   0.00000   0.07118   0.06679   1.97742
   A15        1.91063  -0.01211   0.00000   0.01182   0.00474   1.91537
   A16        3.14159   0.00525   0.00000   0.01125   0.01140   3.15299
   A17        3.14159  -0.00254   0.00000  -0.00554  -0.00549   3.13610
   A18        3.14159  -0.00383   0.00000  -0.00719  -0.00715   3.13444
   A19        3.14159   0.02235   0.00000   0.04103   0.04101   3.18261
   A20        3.14159   0.00188   0.00000   0.00353   0.00358   3.14517
   A21        3.14159   0.00712   0.00000   0.01337   0.01339   3.15498
    D1       -2.59786  -0.02299   0.00000  -0.05732  -0.05849  -2.65635
    D2       -0.50346   0.01863   0.00000   0.04901   0.05039  -0.45307
    D3       -1.02706  -0.02160   0.00000  -0.05441  -0.05568  -1.08274
    D4        1.06734   0.02003   0.00000   0.05193   0.05321   1.12054
    D5        2.11453  -0.01906   0.00000  -0.04887  -0.05013   2.06441
    D6       -2.07426   0.02257   0.00000   0.05746   0.05876  -2.01550
    D7        0.54374  -0.01774   0.00000  -0.04608  -0.04748   0.49626
    D8        2.63813   0.02388   0.00000   0.06026   0.06141   2.69954
         Item               Value     Threshold  Converged?
 Maximum Force            0.234154     0.000450     NO 
 RMS     Force            0.051306     0.000300     NO 
 Maximum Displacement     0.202818     0.001800     NO 
 RMS     Displacement     0.074310     0.001200     NO 
 Predicted change in Energy=-7.846457D-02
 GradGradGradGradGradGradGradGradGradGradGradGradGradGradGradGradGradGrad

                          Input orientation:                          
 ---------------------------------------------------------------------
 Center     Atomic      Atomic             Coordinates (Angstroms)
 Number     Number       Type             X           Y           Z
 ---------------------------------------------------------------------
      1         78           0       -0.342431    0.339590   -0.008239
      2         17           0       -0.382524    2.663288    0.004467
      3         17           0       -0.370126    0.344909   -2.324336
      4         35           0       -2.799603    0.354348    0.011282
      5         35           0       -0.304451    0.347608    2.451395
      6         17           0       -0.391613   -1.742031    0.005127
      7          7           0        1.710718    0.342078   -0.051967
      8          8           0        2.231111   -0.723176   -0.632187
      9          8           0        2.219645    1.434318   -0.587502
 ---------------------------------------------------------------------
                    Distance matrix (angstroms):
                    1          2          3          4          5
     1  Pt   0.000000
     2  Cl   2.324079   0.000000
     3  Cl   2.316269   3.286086   0.000000
     4  Br   2.457294   3.342682   3.370098   0.000000
     5  Br   2.459940   3.369856   4.776183   3.489982   0.000000
     6  Cl   2.082245   4.405329   3.127648   3.192689   3.218449
     7  N    2.053616   3.126158   3.081165   4.510781   3.213683
     8  O    2.853401   4.324876   3.281860   5.184901   4.133295
     9  O    2.845735   2.938040   3.303077   5.168920   4.097181
                    6          7          8          9
     6  Cl   0.000000
     7  N    2.960838   0.000000
     8  O    2.884946   1.319935   0.000000
     9  O    4.154404   1.318634   2.157987   0.000000
 Stoichiometry    Br2Cl3NO2Pt(2-)
 Framework group  C1[X(Br2Cl3NO2Pt)]
 Deg. of freedom    21
 Full point group                 C1      NOp   1
 Largest Abelian subgroup         C1      NOp   1
 Largest concise Abelian subgroup C1      NOp   1
                         Standard orientation:                         
 ---------------------------------------------------------------------
 Center     Atomic      Atomic             Coordinates (Angstroms)
 Number     Number       Type             X           Y           Z
 ---------------------------------------------------------------------
      1         78           0       -0.191524   -0.110519   -0.024137
      2         17           0       -0.153314   -0.113938    2.299625
      3         17           0       -0.978850   -2.288870   -0.021263
      4         35           0        2.116020   -0.955035   -0.006064
      5         35           0        0.636548    2.205833   -0.013534
      6         17           0       -0.137385   -0.114164   -2.105675
      7          7           0       -2.129299    0.569457   -0.024448
      8          8           0       -2.818550    0.209475   -1.091019
      9          8           0       -2.795644    0.246139    1.066535
 ---------------------------------------------------------------------
 Rotational constants (GHZ):      0.4926088      0.4512421      0.3632739
 Basis read from rwf:  (5D, 7F)
 Pseudo-potential data read from rwf file.
 There are   196 symmetry adapted cartesian basis functions of A   symmetry.
 There are   182 symmetry adapted basis functions of A   symmetry.
   182 basis functions,   389 primitive gaussians,   196 cartesian basis functions
    82 alpha electrons       82 beta electrons
       nuclear repulsion energy      1881.7469957260 Hartrees.
 NAtoms=    9 NActive=    9 NUniq=    9 SFac= 1.00D+00 NAtFMM=   60 NAOKFM=F Big=F
 Integral buffers will be    131072 words long.
 Raffenetti 2 integral format.
 Two-electron integral symmetry is turned on.
 ------------------------------------------------------------------------------
 Polarizable Continuum Model (PCM)
 =================================
 Model                : PCM (using non-symmetric T matrix).
 Atomic radii         : UFF (Universal Force Field).
 Polarization charges : Total charges.
 Charge compensation  : None.
 Solution method      : On-the-fly selection.
 Cavity type          : Scaled VdW (van der Waals Surface) (Alpha=1.100).
 Cavity algorithm     : GePol (No added spheres)
                        Default sphere list used, NSphG=    9.
                        Lebedev-Laikov grids with approx.  5.0 points / Ang**2.
                        Smoothing algorithm: Karplus/York (Gamma=1.0000).
                        Polarization charges: spherical gaussians, with
                                              point-specific exponents (IZeta= 3).
                        Self-potential: point-specific (ISelfS= 7).
                        Self-field    : sphere-specific E.n sum rule (ISelfD= 2).
 1st derivatives      : Analytical E(r).r(x)/FMM algorithm (CHGder, D1EAlg=3).
                        Cavity 1st derivative terms included.
 Solvent              : Water, Eps=  78.355300 Eps(inf)=   1.777849
 ------------------------------------------------------------------------------
 Spheres list:
 ISph  on   Nord     Re0    Alpha      Xe            Ye            Ze
    1  Pt      1    1.3770  1.100     -0.191524     -0.110519     -0.024137
    2  Cl      2    1.9735  1.100     -0.153314     -0.113938      2.299625
    3  Cl      3    1.9735  1.100     -0.978850     -2.288870     -0.021263
    4  Br      4    2.0945  1.100      2.116020     -0.955035     -0.006064
    5  Br      5    2.0945  1.100      0.636548      2.205833     -0.013534
    6  Cl      6    1.9735  1.100     -0.137385     -0.114164     -2.105675
    7   N      7    1.8300  1.100     -2.129299      0.569457     -0.024448
    8   O      8    1.7500  1.100     -2.818550      0.209475     -1.091019
    9   O      9    1.7500  1.100     -2.795644      0.246139      1.066535
 ------------------------------------------------------------------------------
 One-electron integrals computed using PRISM.
   1 Symmetry operations used in ECPInt.
 ECPInt:  NShTT=    2775 NPrTT=   14060 LenC2=    2551 LenP2D=    9007.
 LDataN:  DoStor=T MaxTD1= 6 Len=  172
 NBasis=   182 RedAO= T EigKep=  4.80D-03  NBF=   182
 NBsUse=   182 1.00D-06 EigRej= -1.00D+00 NBFU=   182
 Defaulting to unpruned grid for atomic number  78.
 Initial guess from the checkpoint file:  "/home/scr/diego/Gau-14296.chk"
 B after Tr=     0.000000    0.000000    0.000000
         Rot=    0.998419   -0.000136   -0.002335   -0.056167 Ang=  -6.45 deg.
 ExpMin= 2.90D-02 ExpMax= 1.13D+05 ExpMxC= 1.70D+04 IAcc=3 IRadAn=         5 AccDes= 0.00D+00
 Harris functional with IExCor=  402 and IRadAn=       5 diagonalized for initial guess.
 HarFok:  IExCor=  402 AccDes= 0.00D+00 IRadAn=         5 IDoV= 1 UseB2=F ITyADJ=14
 ICtDFT=  3500011 ScaDFX=  1.000000  1.000000  1.000000  1.000000
 Defaulting to unpruned grid for atomic number  78.
 Defaulting to unpruned grid for atomic number  78.
 Defaulting to unpruned grid for atomic number  78.
 Defaulting to unpruned grid for atomic number  78.
 Defaulting to unpruned grid for atomic number  78.
 Defaulting to unpruned grid for atomic number  78.
 Defaulting to unpruned grid for atomic number  78.
 Defaulting to unpruned grid for atomic number  78.
 FoFCou: FMM=F IPFlag=           0 FMFlag=      100000 FMFlg1=           0
         NFxFlg=           0 DoJE=T BraDBF=F KetDBF=T FulRan=T
         wScrn=  0.000000 ICntrl=     500 IOpCl=  0 I1Cent=   200000004 NGrid=           0
         NMat0=    1 NMatS0=      1 NMatT0=    0 NMatD0=    1 NMtDS0=    0 NMtDT0=    0
 Petite list used in FoFCou.
 Keep R1 ints in memory in canonical form, NReq=144267671.
 Requested convergence on RMS density matrix=1.00D-08 within 128 cycles.
 Requested convergence on MAX density matrix=1.00D-06.
 Requested convergence on             energy=1.00D-06.
 No special actions if energy rises.
 Defaulting to unpruned grid for atomic number  78.
 Defaulting to unpruned grid for atomic number  78.
 Defaulting to unpruned grid for atomic number  78.
 Defaulting to unpruned grid for atomic number  78.
 Defaulting to unpruned grid for atomic number  78.
 Defaulting to unpruned grid for atomic number  78.
 Defaulting to unpruned grid for atomic number  78.
 Defaulting to unpruned grid for atomic number  78.
 Inv3:  Mode=1 IEnd=     6324912.
 Iteration    1 A*A^-1 deviation from unit magnitude is 6.88D-15 for    889.
 Iteration    1 A*A^-1 deviation from orthogonality  is 3.52D-15 for   1246    733.
 Iteration    1 A^-1*A deviation from unit magnitude is 7.55D-15 for    889.
 Iteration    1 A^-1*A deviation from orthogonality  is 1.62D-14 for    344    342.
 Error on total polarization charges =  0.01535
 SCF Done:  E(RB3LYP) =  -6852.43371351     A.U. after   15 cycles
            NFock= 15  Conv=0.31D-08     -V/T= 2.0135
   1 Symmetry operations used in ECPInt.
 ECPInt:  NShTT=    2775 NPrTT=   14060 LenC2=    2551 LenP2D=    9007.
 LDataN:  DoStor=T MaxTD1= 7 Len=  274
 D1PCM: PCM CHGder 1st derivatives, ID1Alg=3 FixD1E=F DoIter=F DoCFld=F I1PDM=0.
 Calling FoFJK, ICntrl=      2127 FMM=F ISym2X=0 I1Cent= 0 IOpClX= 0 NMat=1 NMatS=1 NMatT=0.
 Defaulting to unpruned grid for atomic number  78.
 Defaulting to unpruned grid for atomic number  78.
 Defaulting to unpruned grid for atomic number  78.
 Defaulting to unpruned grid for atomic number  78.
 Defaulting to unpruned grid for atomic number  78.
 Defaulting to unpruned grid for atomic number  78.
 Defaulting to unpruned grid for atomic number  78.
 Defaulting to unpruned grid for atomic number  78.
 ***** Axes restored to original set *****
 -------------------------------------------------------------------
 Center     Atomic                   Forces (Hartrees/Bohr)
 Number     Number              X              Y              Z
 -------------------------------------------------------------------
      1       78          -0.008266593    0.104492410    0.027126478
      2       17          -0.004051571    0.036255618    0.001413713
      3       17           0.001140645    0.000810451   -0.032651054
      4       35          -0.024535330    0.000791067   -0.002066455
      5       35           0.001254838    0.000922720    0.026027985
      6       17          -0.005499366   -0.143074641    0.002204007
      7        7           0.095383309    0.004105987   -0.155668485
      8        8          -0.027846312    0.043771087    0.067255031
      9        8          -0.027579621   -0.048074699    0.066358779
 -------------------------------------------------------------------
 Cartesian Forces:  Max     0.155668485 RMS     0.055761851

 GradGradGradGradGradGradGradGradGradGradGradGradGradGradGradGradGradGrad
 Berny optimization.
 Using GEDIIS/GDIIS optimizer.
 FormGI is forming the generalized inverse of G from B-inverse, IUseBI=4.
 Internal  Forces:  Max     0.143171763 RMS     0.033369926
 Search for a local minimum.
 Step number   2 out of a maximum of   47
 All quantities printed in internal units (Hartrees-Bohrs-Radians)
 Mixed Optimization -- RFO/linear search
 Update second derivatives using D2CorX and points    1    2
 DE= -7.71D-02 DEPred=-7.85D-02 R= 9.83D-01
 TightC=F SS=  1.41D+00  RLast= 3.35D-01 DXNew= 5.0454D-01 1.0052D+00
 Trust test= 9.83D-01 RLast= 3.35D-01 DXMaxT set to 5.05D-01
 ITU=  1  0
 Use linear search instead of GDIIS.
 Linear search step of   0.595 exceeds DXMaxT=   0.505 but not scaled.
 Quartic linear search produced a step of  2.00000.
 Iteration  1 RMS(Cart)=  0.12528320 RMS(Int)=  0.02904799
 Iteration  2 RMS(Cart)=  0.02592360 RMS(Int)=  0.00847758
 Iteration  3 RMS(Cart)=  0.00023357 RMS(Int)=  0.00847557
 Iteration  4 RMS(Cart)=  0.00000421 RMS(Int)=  0.00847557
 Iteration  5 RMS(Cart)=  0.00000009 RMS(Int)=  0.00847557
 Variable       Old X    -DE/DX   Delta X   Delta X   Delta X     New X
                                 (Linear)    (Quad)   (Total)
    R1        4.39187   0.03633   0.16659   0.00000   0.16659   4.55847
    R2        4.37711   0.03262   0.13708   0.00000   0.13708   4.51419
    R3        4.64361   0.02452   0.10316   0.00000   0.10316   4.74677
    R4        4.64861   0.02607   0.11316   0.00000   0.11316   4.76177
    R5        3.93487   0.14317   0.34864   0.00000   0.34864   4.28351
    R6        3.88077   0.04039   0.24043   0.00000   0.24043   4.12120
    R7        2.49432  -0.07583  -0.15142   0.00000  -0.15142   2.34289
    R8        2.49186  -0.07740  -0.15634   0.00000  -0.15634   2.33551
    A1        1.57376   0.00037   0.00593   0.00000   0.00622   1.57998
    A2        1.54750  -0.00452  -0.04660   0.00000  -0.04651   1.50099
    A3        1.56234  -0.00151  -0.01692   0.00000  -0.01696   1.54538
    A4        1.58695   0.00465   0.03231   0.00000   0.03244   1.61939
    A5        1.56677  -0.00094  -0.00805   0.00000  -0.00824   1.55853
    A6        1.57923   0.00143   0.01686   0.00000   0.01743   1.59666
    A7        1.56146  -0.00452  -0.01868   0.00000  -0.01841   1.54304
    A8        1.57827   0.00360   0.01495   0.00000   0.01464   1.59291
    A9        1.55313  -0.00132  -0.03533   0.00000  -0.03502   1.51811
   A10        1.56800  -0.00016  -0.00559   0.00000  -0.00561   1.56239
   A11        1.57665   0.00184   0.01170   0.00000   0.01168   1.58833
   A12        1.59576   0.00127   0.04993   0.00000   0.05029   1.64605
   A13        1.98510   0.01163   0.14893   0.00000   0.12244   2.10754
   A14        1.97742   0.01241   0.13358   0.00000   0.10690   2.08432
   A15        1.91537   0.01319   0.00948   0.00000  -0.02362   1.89176
   A16        3.15299   0.00180   0.02279   0.00000   0.02366   3.17665
   A17        3.13610  -0.00114  -0.01099   0.00000  -0.01073   3.12536
   A18        3.13444   0.00013  -0.01430   0.00000  -0.01407   3.12038
   A19        3.18261   0.00586   0.08203   0.00000   0.08194   3.26455
   A20        3.14517   0.00272   0.00716   0.00000   0.00744   3.15261
   A21        3.15498   0.00546   0.02678   0.00000   0.02689   3.18187
    D1       -2.65635  -0.02020  -0.11698   0.00000  -0.12064  -2.77699
    D2       -0.45307   0.01876   0.10078   0.00000   0.10566  -0.34741
    D3       -1.08274  -0.01994  -0.11136   0.00000  -0.11560  -1.19834
    D4        1.12054   0.01902   0.10641   0.00000   0.11069   1.23124
    D5        2.06441  -0.01874  -0.10025   0.00000  -0.10441   1.96000
    D6       -2.01550   0.02022   0.11752   0.00000   0.12189  -1.89361
    D7        0.49626  -0.01863  -0.09495   0.00000  -0.09995   0.39631
    D8        2.69954   0.02033   0.12282   0.00000   0.12635   2.82589
         Item               Value     Threshold  Converged?
 Maximum Force            0.143172     0.000450     NO 
 RMS     Force            0.033370     0.000300     NO 
 Maximum Displacement     0.346002     0.001800     NO 
 RMS     Displacement     0.137612     0.001200     NO 
 Predicted change in Energy=-5.286777D-02
 GradGradGradGradGradGradGradGradGradGradGradGradGradGradGradGradGradGrad

                          Input orientation:                          
 ---------------------------------------------------------------------
 Center     Atomic      Atomic             Coordinates (Angstroms)
 Number     Number       Type             X           Y           Z
 ---------------------------------------------------------------------
      1         78           0       -0.376808    0.340882   -0.022335
      2         17           0       -0.501296    2.749523    0.020569
      3         17           0       -0.449541    0.357672   -2.409975
      4         35           0       -2.887868    0.385756    0.023645
      5         35           0       -0.274520    0.365458    2.495288
      6         17           0       -0.535739   -1.919773    0.025262
      7          7           0        1.800333    0.349565   -0.149140
      8          8           0        2.414207   -0.637607   -0.580147
      9          8           0        2.381957    1.369456   -0.535128
 ---------------------------------------------------------------------
                    Distance matrix (angstroms):
                    1          2          3          4          5
     1  Pt   0.000000
     2  Cl   2.412237   0.000000
     3  Cl   2.388807   3.410450   0.000000
     4  Br   2.511882   3.359036   3.445103   0.000000
     5  Br   2.519820   3.443753   4.908391   3.597084   0.000000
     6  Cl   2.266735   4.669426   3.335351   3.293627   3.375137
     7  N    2.180848   3.329579   3.189573   4.691523   3.361290
     8  O    3.009711   4.509287   3.541172   5.433584   4.206388
     9  O    2.988596   3.244462   3.543464   5.389893   4.153109
                    6          7          8          9
     6  Cl   0.000000
     7  N    3.261524   0.000000
     8  O    3.273019   1.239805   0.000000
     9  O    4.432382   1.235901   2.007826   0.000000
 Stoichiometry    Br2Cl3NO2Pt(2-)
 Framework group  C1[X(Br2Cl3NO2Pt)]
 Deg. of freedom    21
 Full point group                 C1      NOp   1
 Largest Abelian subgroup         C1      NOp   1
 Largest concise Abelian subgroup C1      NOp   1
                         Standard orientation:                         
 ---------------------------------------------------------------------
 Center     Atomic      Atomic             Coordinates (Angstroms)
 Number     Number       Type             X           Y           Z
 ---------------------------------------------------------------------
      1         78           0       -0.172769   -0.154480   -0.024012
      2         17           0       -0.025930   -0.129977    2.383627
      3         17           0       -0.576842   -2.508713    0.002602
      4         35           0        2.297401   -0.609384    0.005514
      5         35           0        0.228507    2.333142   -0.009642
      6         17           0       -0.022848   -0.146296   -2.285769
      7          7           0       -2.331448    0.154877   -0.001649
      8          8           0       -3.025523   -0.148208   -0.983238
      9          8           0       -2.971370   -0.104471    1.023381
 ---------------------------------------------------------------------
 Rotational constants (GHZ):      0.4597656      0.4158048      0.3398208
 Basis read from rwf:  (5D, 7F)
 Pseudo-potential data read from rwf file.
 There are   196 symmetry adapted cartesian basis functions of A   symmetry.
 There are   182 symmetry adapted basis functions of A   symmetry.
   182 basis functions,   389 primitive gaussians,   196 cartesian basis functions
    82 alpha electrons       82 beta electrons
       nuclear repulsion energy      1817.5941941132 Hartrees.
 NAtoms=    9 NActive=    9 NUniq=    9 SFac= 1.00D+00 NAtFMM=   60 NAOKFM=F Big=F
 Integral buffers will be    131072 words long.
 Raffenetti 2 integral format.
 Two-electron integral symmetry is turned on.
 ------------------------------------------------------------------------------
 Polarizable Continuum Model (PCM)
 =================================
 Model                : PCM (using non-symmetric T matrix).
 Atomic radii         : UFF (Universal Force Field).
 Polarization charges : Total charges.
 Charge compensation  : None.
 Solution method      : On-the-fly selection.
 Cavity type          : Scaled VdW (van der Waals Surface) (Alpha=1.100).
 Cavity algorithm     : GePol (No added spheres)
                        Default sphere list used, NSphG=    9.
                        Lebedev-Laikov grids with approx.  5.0 points / Ang**2.
                        Smoothing algorithm: Karplus/York (Gamma=1.0000).
                        Polarization charges: spherical gaussians, with
                                              point-specific exponents (IZeta= 3).
                        Self-potential: point-specific (ISelfS= 7).
                        Self-field    : sphere-specific E.n sum rule (ISelfD= 2).
 1st derivatives      : Analytical E(r).r(x)/FMM algorithm (CHGder, D1EAlg=3).
                        Cavity 1st derivative terms included.
 Solvent              : Water, Eps=  78.355300 Eps(inf)=   1.777849
 ------------------------------------------------------------------------------
 Spheres list:
 ISph  on   Nord     Re0    Alpha      Xe            Ye            Ze
    1  Pt      1    1.3770  1.100     -0.172769     -0.154480     -0.024012
    2  Cl      2    1.9735  1.100     -0.025930     -0.129977      2.383627
    3  Cl      3    1.9735  1.100     -0.576842     -2.508713      0.002602
    4  Br      4    2.0945  1.100      2.297401     -0.609384      0.005514
    5  Br      5    2.0945  1.100      0.228507      2.333142     -0.009642
    6  Cl      6    1.9735  1.100     -0.022848     -0.146296     -2.285769
    7   N      7    1.8300  1.100     -2.331448      0.154877     -0.001649
    8   O      8    1.7500  1.100     -3.025523     -0.148208     -0.983238
    9   O      9    1.7500  1.100     -2.971370     -0.104471      1.023381
 ------------------------------------------------------------------------------
 One-electron integrals computed using PRISM.
   1 Symmetry operations used in ECPInt.
 ECPInt:  NShTT=    2775 NPrTT=   14060 LenC2=    2529 LenP2D=    8892.
 LDataN:  DoStor=T MaxTD1= 6 Len=  172
 NBasis=   182 RedAO= T EigKep=  5.56D-03  NBF=   182
 NBsUse=   182 1.00D-06 EigRej= -1.00D+00 NBFU=   182
 Defaulting to unpruned grid for atomic number  78.
 Initial guess from the checkpoint file:  "/home/scr/diego/Gau-14296.chk"
 B after Tr=     0.000000    0.000000    0.000000
         Rot=    0.996542    0.001389   -0.002036   -0.083050 Ang=   9.53 deg.
 ExpMin= 2.90D-02 ExpMax= 1.13D+05 ExpMxC= 1.70D+04 IAcc=3 IRadAn=         5 AccDes= 0.00D+00
 Harris functional with IExCor=  402 and IRadAn=       5 diagonalized for initial guess.
 HarFok:  IExCor=  402 AccDes= 0.00D+00 IRadAn=         5 IDoV= 1 UseB2=F ITyADJ=14
 ICtDFT=  3500011 ScaDFX=  1.000000  1.000000  1.000000  1.000000
 Defaulting to unpruned grid for atomic number  78.
 Defaulting to unpruned grid for atomic number  78.
 Defaulting to unpruned grid for atomic number  78.
 Defaulting to unpruned grid for atomic number  78.
 Defaulting to unpruned grid for atomic number  78.
 Defaulting to unpruned grid for atomic number  78.
 Defaulting to unpruned grid for atomic number  78.
 Defaulting to unpruned grid for atomic number  78.
 FoFCou: FMM=F IPFlag=           0 FMFlag=      100000 FMFlg1=           0
         NFxFlg=           0 DoJE=T BraDBF=F KetDBF=T FulRan=T
         wScrn=  0.000000 ICntrl=     500 IOpCl=  0 I1Cent=   200000004 NGrid=           0
         NMat0=    1 NMatS0=      1 NMatT0=    0 NMatD0=    1 NMtDS0=    0 NMtDT0=    0
 Petite list used in FoFCou.
 Keep R1 ints in memory in canonical form, NReq=144466987.
 Requested convergence on RMS density matrix=1.00D-08 within 128 cycles.
 Requested convergence on MAX density matrix=1.00D-06.
 Requested convergence on             energy=1.00D-06.
 No special actions if energy rises.
 Defaulting to unpruned grid for atomic number  78.
 Defaulting to unpruned grid for atomic number  78.
 Defaulting to unpruned grid for atomic number  78.
 Defaulting to unpruned grid for atomic number  78.
 Defaulting to unpruned grid for atomic number  78.
 Defaulting to unpruned grid for atomic number  78.
 Defaulting to unpruned grid for atomic number  78.
 Defaulting to unpruned grid for atomic number  78.
 Inv3:  Mode=1 IEnd=     6903867.
 Iteration    1 A*A^-1 deviation from unit magnitude is 6.33D-15 for    742.
 Iteration    1 A*A^-1 deviation from orthogonality  is 3.77D-15 for   1041    353.
 Iteration    1 A^-1*A deviation from unit magnitude is 6.44D-15 for     24.
 Iteration    1 A^-1*A deviation from orthogonality  is 2.10D-11 for    372    365.
 Error on total polarization charges =  0.01453
 SCF Done:  E(RB3LYP) =  -6852.49961320     A.U. after   15 cycles
            NFock= 15  Conv=0.73D-08     -V/T= 2.0136
   1 Symmetry operations used in ECPInt.
 ECPInt:  NShTT=    2775 NPrTT=   14060 LenC2=    2529 LenP2D=    8892.
 LDataN:  DoStor=T MaxTD1= 7 Len=  274
 D1PCM: PCM CHGder 1st derivatives, ID1Alg=3 FixD1E=F DoIter=F DoCFld=F I1PDM=0.
 Calling FoFJK, ICntrl=      2127 FMM=F ISym2X=0 I1Cent= 0 IOpClX= 0 NMat=1 NMatS=1 NMatT=0.
 Defaulting to unpruned grid for atomic number  78.
 Defaulting to unpruned grid for atomic number  78.
 Defaulting to unpruned grid for atomic number  78.
 Defaulting to unpruned grid for atomic number  78.
 Defaulting to unpruned grid for atomic number  78.
 Defaulting to unpruned grid for atomic number  78.
 Defaulting to unpruned grid for atomic number  78.
 Defaulting to unpruned grid for atomic number  78.
 ***** Axes restored to original set *****
 -------------------------------------------------------------------
 Center     Atomic                   Forces (Hartrees/Bohr)
 Number     Number              X              Y              Z
 -------------------------------------------------------------------
      1       78           0.003974146    0.036522835    0.013784688
      2       17           0.003806826    0.005368632   -0.000598397
      3       17           0.002583284   -0.000555801   -0.008878859
      4       35          -0.010346943   -0.000045599   -0.000295336
      5       35           0.001813948   -0.000371904    0.007107222
      6       17           0.003315645   -0.040215061   -0.000323965
      7        7           0.057210134    0.000432970   -0.089174266
      8        8          -0.031757718   -0.047577372    0.038555228
      9        8          -0.030599322    0.046441300    0.039823684
 -------------------------------------------------------------------
 Cartesian Forces:  Max     0.089174266 RMS     0.029889672

 GradGradGradGradGradGradGradGradGradGradGradGradGradGradGradGradGradGrad
 Berny optimization.
 Using GEDIIS/GDIIS optimizer.
 FormGI is forming the generalized inverse of G from B-inverse, IUseBI=4.
 Internal  Forces:  Max     0.080022366 RMS     0.019423622
 Search for a local minimum.
 Step number   3 out of a maximum of   47
 All quantities printed in internal units (Hartrees-Bohrs-Radians)
 Mixed Optimization -- RFO/linear search
 Update second derivatives using D2CorX and points    2    3
 ITU=  0  1  0
 Use linear search instead of GDIIS.
     Eigenvalues ---    0.00230   0.01681   0.08469   0.08896   0.12532
     Eigenvalues ---    0.12607   0.12649   0.13455   0.16653   0.16724
     Eigenvalues ---    0.19513   0.19794   0.21348   0.22002   0.24950
     Eigenvalues ---    0.24994   0.25000   0.30104   0.40571   0.52948
     Eigenvalues ---    0.60975
 RFO step:  Lambda=-6.63161724D-02 EMin= 2.30007576D-03
 Quartic linear search produced a step of  0.16028.
 Iteration  1 RMS(Cart)=  0.07537222 RMS(Int)=  0.02208888
 Iteration  2 RMS(Cart)=  0.02117393 RMS(Int)=  0.00465109
 Iteration  3 RMS(Cart)=  0.00054483 RMS(Int)=  0.00462131
 Iteration  4 RMS(Cart)=  0.00000148 RMS(Int)=  0.00462131
 Iteration  5 RMS(Cart)=  0.00000001 RMS(Int)=  0.00462131
 Variable       Old X    -DE/DX   Delta X   Delta X   Delta X     New X
                                 (Linear)    (Quad)   (Total)
    R1        4.55847   0.00517   0.02670   0.03127   0.05797   4.61643
    R2        4.51419   0.00877   0.02197   0.04199   0.06396   4.57815
    R3        4.74677   0.01034   0.01653   0.04839   0.06493   4.81170
    R4        4.76177   0.00719   0.01814   0.03662   0.05475   4.81652
    R5        4.28351   0.03986   0.05588   0.09548   0.15136   4.43486
    R6        4.12120  -0.00453   0.03854   0.00093   0.03946   4.16067
    R7        2.34289   0.00880  -0.02427   0.00270  -0.02157   2.32132
    R8        2.33551   0.01148  -0.02506   0.00694  -0.01811   2.31740
    A1        1.57998   0.00011   0.00100   0.00089   0.00182   1.58181
    A2        1.50099   0.00493  -0.00745   0.02613   0.01868   1.51967
    A3        1.54538   0.00091  -0.00272   0.00522   0.00230   1.54768
    A4        1.61939  -0.00272   0.00520  -0.01536  -0.01015   1.60924
    A5        1.55853   0.00270  -0.00132   0.01191   0.01057   1.56910
    A6        1.59666  -0.00102   0.00279  -0.00536  -0.00298   1.59369
    A7        1.54304  -0.00468  -0.00295  -0.02428  -0.02723   1.51581
    A8        1.59291   0.00233   0.00235   0.01574   0.01805   1.61096
    A9        1.51811   0.00634  -0.00561   0.02689   0.02130   1.53941
   A10        1.56239   0.00051  -0.00090   0.00213   0.00083   1.56322
   A11        1.58833  -0.00030   0.00187  -0.00309  -0.00121   1.58712
   A12        1.64605  -0.00853   0.00806  -0.03749  -0.02940   1.61666
   A13        2.10754  -0.04137   0.01962  -0.07695  -0.07318   2.03436
   A14        2.08432  -0.03820   0.01713  -0.06765  -0.06638   2.01794
   A15        1.89176   0.08002  -0.00379   0.32196   0.30155   2.19331
   A16        3.17665  -0.00091   0.00379  -0.00448  -0.00115   3.17549
   A17        3.12536   0.00102  -0.00172   0.00611   0.00413   3.12949
   A18        3.12038   0.00221  -0.00225   0.01077   0.00853   3.12891
   A19        3.26455  -0.01139   0.01313  -0.05353  -0.04037   3.22418
   A20        3.15261   0.00489   0.00119   0.02685   0.02814   3.18075
   A21        3.18187   0.00195   0.00431   0.01225   0.01658   3.19845
    D1       -2.77699  -0.01512  -0.01934  -0.19709  -0.21771  -2.99470
    D2       -0.34741   0.01615   0.01693   0.20231   0.22020  -0.12722
    D3       -1.19834  -0.01517  -0.01853  -0.19695  -0.21664  -1.41498
    D4        1.23124   0.01611   0.01774   0.20245   0.22126   1.45250
    D5        1.96000  -0.01598  -0.01673  -0.20191  -0.21980   1.74020
    D6       -1.89361   0.01530   0.01954   0.19749   0.21811  -1.67551
    D7        0.39631  -0.01632  -0.01602  -0.20318  -0.22007   0.17624
    D8        2.82589   0.01496   0.02025   0.19622   0.21783   3.04372
         Item               Value     Threshold  Converged?
 Maximum Force            0.080022     0.000450     NO 
 RMS     Force            0.019424     0.000300     NO 
 Maximum Displacement     0.210629     0.001800     NO 
 RMS     Displacement     0.089724     0.001200     NO 
 Predicted change in Energy=-4.900144D-02
 GradGradGradGradGradGradGradGradGradGradGradGradGradGradGradGradGradGrad

                          Input orientation:                          
 ---------------------------------------------------------------------
 Center     Atomic      Atomic             Coordinates (Angstroms)
 Number     Number       Type             X           Y           Z
 ---------------------------------------------------------------------
      1         78           0       -0.379769    0.353567   -0.046962
      2         17           0       -0.469848    2.794443   -0.004152
      3         17           0       -0.470655    0.365976   -2.467876
      4         35           0       -2.924131    0.388301    0.044419
      5         35           0       -0.185781    0.375113    2.494347
      6         17           0       -0.483831   -1.990509   -0.001317
      7          7           0        1.812548    0.353341   -0.250347
      8          8           0        2.343085   -0.731266   -0.476405
      9          8           0        2.329108    1.451966   -0.423668
 ---------------------------------------------------------------------
                    Distance matrix (angstroms):
                    1          2          3          4          5
     1  Pt   0.000000
     2  Cl   2.442912   0.000000
     3  Cl   2.422651   3.459391   0.000000
     4  Br   2.546240   3.437351   3.511648   0.000000
     5  Br   2.548793   3.489462   4.970402   3.674355   0.000000
     6  Cl   2.346829   4.784973   3.411321   3.408209   3.451571
     7  N    2.201731   3.350958   3.182862   4.745971   3.395164
     8  O    2.962299   4.535002   3.617600   5.410014   4.055195
     9  O    2.947270   3.132474   3.632744   5.380243   3.999887
                    6          7          8          9
     6  Cl   0.000000
     7  N    3.290746   0.000000
     8  O    3.130951   1.228391   0.000000
     9  O    4.465607   1.226316   2.183914   0.000000
 Stoichiometry    Br2Cl3NO2Pt(2-)
 Framework group  C1[X(Br2Cl3NO2Pt)]
 Deg. of freedom    21
 Full point group                 C1      NOp   1
 Largest Abelian subgroup         C1      NOp   1
 Largest concise Abelian subgroup C1      NOp   1
                         Standard orientation:                         
 ---------------------------------------------------------------------
 Center     Atomic      Atomic             Coordinates (Angstroms)
 Number     Number       Type             X           Y           Z
 ---------------------------------------------------------------------
      1         78           0       -0.135611   -0.195903   -0.014221
      2         17           0       -0.014988   -0.133157    2.424904
      3         17           0       -0.140958   -2.618283    0.021643
      4         35           0        2.410605   -0.205769   -0.009558
      5         35           0       -0.228086    2.351211   -0.016172
      6         17           0       -0.057593   -0.177080   -2.359677
      7          7           0       -2.334132   -0.311658    0.012721
      8          8           0       -2.886053   -0.526831   -1.063397
      9          8           0       -2.844125   -0.453619    1.118887
 ---------------------------------------------------------------------
 Rotational constants (GHZ):      0.4451050      0.4060108      0.3362241
 Basis read from rwf:  (5D, 7F)
 Pseudo-potential data read from rwf file.
 There are   196 symmetry adapted cartesian basis functions of A   symmetry.
 There are   182 symmetry adapted basis functions of A   symmetry.
   182 basis functions,   389 primitive gaussians,   196 cartesian basis functions
    82 alpha electrons       82 beta electrons
       nuclear repulsion energy      1794.7588159263 Hartrees.
 NAtoms=    9 NActive=    9 NUniq=    9 SFac= 1.00D+00 NAtFMM=   60 NAOKFM=F Big=F
 Integral buffers will be    131072 words long.
 Raffenetti 2 integral format.
 Two-electron integral symmetry is turned on.
 ------------------------------------------------------------------------------
 Polarizable Continuum Model (PCM)
 =================================
 Model                : PCM (using non-symmetric T matrix).
 Atomic radii         : UFF (Universal Force Field).
 Polarization charges : Total charges.
 Charge compensation  : None.
 Solution method      : On-the-fly selection.
 Cavity type          : Scaled VdW (van der Waals Surface) (Alpha=1.100).
 Cavity algorithm     : GePol (No added spheres)
                        Default sphere list used, NSphG=    9.
                        Lebedev-Laikov grids with approx.  5.0 points / Ang**2.
                        Smoothing algorithm: Karplus/York (Gamma=1.0000).
                        Polarization charges: spherical gaussians, with
                                              point-specific exponents (IZeta= 3).
                        Self-potential: point-specific (ISelfS= 7).
                        Self-field    : sphere-specific E.n sum rule (ISelfD= 2).
 1st derivatives      : Analytical E(r).r(x)/FMM algorithm (CHGder, D1EAlg=3).
                        Cavity 1st derivative terms included.
 Solvent              : Water, Eps=  78.355300 Eps(inf)=   1.777849
 ------------------------------------------------------------------------------
 Spheres list:
 ISph  on   Nord     Re0    Alpha      Xe            Ye            Ze
    1  Pt      1    1.3770  1.100     -0.135611     -0.195903     -0.014221
    2  Cl      2    1.9735  1.100     -0.014988     -0.133157      2.424904
    3  Cl      3    1.9735  1.100     -0.140958     -2.618283      0.021643
    4  Br      4    2.0945  1.100      2.410605     -0.205769     -0.009558
    5  Br      5    2.0945  1.100     -0.228086      2.351211     -0.016172
    6  Cl      6    1.9735  1.100     -0.057593     -0.177080     -2.359677
    7   N      7    1.8300  1.100     -2.334132     -0.311658      0.012721
    8   O      8    1.7500  1.100     -2.886053     -0.526831     -1.063397
    9   O      9    1.7500  1.100     -2.844125     -0.453619      1.118887
 ------------------------------------------------------------------------------
 One-electron integrals computed using PRISM.
   1 Symmetry operations used in ECPInt.
 ECPInt:  NShTT=    2775 NPrTT=   14060 LenC2=    2520 LenP2D=    8851.
 LDataN:  DoStor=T MaxTD1= 6 Len=  172
 NBasis=   182 RedAO= T EigKep=  6.50D-03  NBF=   182
 NBsUse=   182 1.00D-06 EigRej= -1.00D+00 NBFU=   182
 Defaulting to unpruned grid for atomic number  78.
 Initial guess from the checkpoint file:  "/home/scr/diego/Gau-14296.chk"
 B after Tr=     0.000000    0.000000    0.000000
         Rot=    0.996315    0.002259   -0.003439   -0.085674 Ang=   9.84 deg.
 ExpMin= 2.90D-02 ExpMax= 1.13D+05 ExpMxC= 1.70D+04 IAcc=3 IRadAn=         5 AccDes= 0.00D+00
 Harris functional with IExCor=  402 and IRadAn=       5 diagonalized for initial guess.
 HarFok:  IExCor=  402 AccDes= 0.00D+00 IRadAn=         5 IDoV= 1 UseB2=F ITyADJ=14
 ICtDFT=  3500011 ScaDFX=  1.000000  1.000000  1.000000  1.000000
 Defaulting to unpruned grid for atomic number  78.
 Defaulting to unpruned grid for atomic number  78.
 Defaulting to unpruned grid for atomic number  78.
 Defaulting to unpruned grid for atomic number  78.
 Defaulting to unpruned grid for atomic number  78.
 Defaulting to unpruned grid for atomic number  78.
 Defaulting to unpruned grid for atomic number  78.
 Defaulting to unpruned grid for atomic number  78.
 FoFCou: FMM=F IPFlag=           0 FMFlag=      100000 FMFlg1=           0
         NFxFlg=           0 DoJE=T BraDBF=F KetDBF=T FulRan=T
         wScrn=  0.000000 ICntrl=     500 IOpCl=  0 I1Cent=   200000004 NGrid=           0
         NMat0=    1 NMatS0=      1 NMatT0=    0 NMatD0=    1 NMtDS0=    0 NMtDT0=    0
 Petite list used in FoFCou.
 Keep R1 ints in memory in canonical form, NReq=144622115.
 Requested convergence on RMS density matrix=1.00D-08 within 128 cycles.
 Requested convergence on MAX density matrix=1.00D-06.
 Requested convergence on             energy=1.00D-06.
 No special actions if energy rises.
 Defaulting to unpruned grid for atomic number  78.
 Defaulting to unpruned grid for atomic number  78.
 Defaulting to unpruned grid for atomic number  78.
 Defaulting to unpruned grid for atomic number  78.
 Defaulting to unpruned grid for atomic number  78.
 Defaulting to unpruned grid for atomic number  78.
 Defaulting to unpruned grid for atomic number  78.
 Defaulting to unpruned grid for atomic number  78.
 Inv3:  Mode=1 IEnd=     7347675.
 Iteration    1 A*A^-1 deviation from unit magnitude is 6.88D-15 for    238.
 Iteration    1 A*A^-1 deviation from orthogonality  is 3.47D-15 for    385      2.
 Iteration    1 A^-1*A deviation from unit magnitude is 6.00D-15 for    231.
 Iteration    1 A^-1*A deviation from orthogonality  is 1.04D-14 for    217    183.
 Error on total polarization charges =  0.01443
 SCF Done:  E(RB3LYP) =  -6852.53268081     A.U. after   15 cycles
            NFock= 15  Conv=0.75D-08     -V/T= 2.0137
   1 Symmetry operations used in ECPInt.
 ECPInt:  NShTT=    2775 NPrTT=   14060 LenC2=    2520 LenP2D=    8851.
 LDataN:  DoStor=T MaxTD1= 7 Len=  274
 D1PCM: PCM CHGder 1st derivatives, ID1Alg=3 FixD1E=F DoIter=F DoCFld=F I1PDM=0.
 Calling FoFJK, ICntrl=      2127 FMM=F ISym2X=0 I1Cent= 0 IOpClX= 0 NMat=1 NMatS=1 NMatT=0.
 Defaulting to unpruned grid for atomic number  78.
 Defaulting to unpruned grid for atomic number  78.
 Defaulting to unpruned grid for atomic number  78.
 Defaulting to unpruned grid for atomic number  78.
 Defaulting to unpruned grid for atomic number  78.
 Defaulting to unpruned grid for atomic number  78.
 Defaulting to unpruned grid for atomic number  78.
 Defaulting to unpruned grid for atomic number  78.
 ***** Axes restored to original set *****
 -------------------------------------------------------------------
 Center     Atomic                   Forces (Hartrees/Bohr)
 Number     Number              X              Y              Z
 -------------------------------------------------------------------
      1       78           0.011022569    0.018815160    0.004506817
      2       17           0.001714504   -0.002852994   -0.001014580
      3       17           0.002166837   -0.000461244   -0.000795269
      4       35          -0.009179841   -0.000490555    0.001336767
      5       35           0.001639680   -0.000627525    0.000163974
      6       17           0.001337529   -0.014155401   -0.000770882
      7        7          -0.009810512   -0.000968429   -0.024196512
      8        8          -0.000362409    0.022667051    0.011037639
      9        8           0.001471643   -0.021926062    0.009732046
 -------------------------------------------------------------------
 Cartesian Forces:  Max     0.024196512 RMS     0.010003100

 GradGradGradGradGradGradGradGradGradGradGradGradGradGradGradGradGradGrad
 Berny optimization.
 Using GEDIIS/GDIIS optimizer.
 FormGI is forming the generalized inverse of G from B-inverse, IUseBI=4.
 Internal  Forces:  Max     0.022186348 RMS     0.007226854
 Search for a local minimum.
 Step number   4 out of a maximum of   47
 All quantities printed in internal units (Hartrees-Bohrs-Radians)
 Mixed Optimization -- RFO/linear search
 Update second derivatives using D2CorX and points    3    4
 DE= -3.31D-02 DEPred=-4.90D-02 R= 6.75D-01
 TightC=F SS=  1.41D+00  RLast= 7.28D-01 DXNew= 8.4853D-01 2.1838D+00
 Trust test= 6.75D-01 RLast= 7.28D-01 DXMaxT set to 8.49D-01
 ITU=  1  0  1  0
 Use linear search instead of GDIIS.
     Eigenvalues ---    0.00230   0.01297   0.08472   0.08912   0.12181
     Eigenvalues ---    0.12604   0.12646   0.13325   0.15820   0.16726
     Eigenvalues ---    0.19562   0.20058   0.21175   0.22002   0.24956
     Eigenvalues ---    0.24983   0.25001   0.27269   0.43045   0.52946
     Eigenvalues ---    0.67646
 RFO step:  Lambda=-1.46603727D-02 EMin= 2.30010489D-03
 Quartic linear search produced a step of  0.15802.
 Iteration  1 RMS(Cart)=  0.08088807 RMS(Int)=  0.01954530
 Iteration  2 RMS(Cart)=  0.01615026 RMS(Int)=  0.01077032
 Iteration  3 RMS(Cart)=  0.00028478 RMS(Int)=  0.01076459
 Iteration  4 RMS(Cart)=  0.00000428 RMS(Int)=  0.01076459
 Iteration  5 RMS(Cart)=  0.00000008 RMS(Int)=  0.01076459
 Variable       Old X    -DE/DX   Delta X   Delta X   Delta X     New X
                                 (Linear)    (Quad)   (Total)
    R1        4.61643  -0.00293   0.00916  -0.04234  -0.03318   4.58325
    R2        4.57815   0.00070   0.01011  -0.02518  -0.01508   4.56307
    R3        4.81170   0.00921   0.01026   0.02196   0.03222   4.84392
    R4        4.81652   0.00029   0.00865  -0.02360  -0.01494   4.80158
    R5        4.43486   0.01406   0.02392  -0.02989  -0.00597   4.42889
    R6        4.16067  -0.00835   0.00624  -0.06909  -0.06285   4.09782
    R7        2.32132  -0.02219  -0.00341  -0.02574  -0.02915   2.29217
    R8        2.31740  -0.02041  -0.00286  -0.02274  -0.02560   2.29180
    A1        1.58181  -0.00032   0.00029  -0.00317  -0.00292   1.57888
    A2        1.51967   0.00264   0.00295   0.02040   0.02346   1.54313
    A3        1.54768   0.00129   0.00036   0.01421   0.01426   1.56195
    A4        1.60924  -0.00103  -0.00160  -0.01005  -0.01167   1.59757
    A5        1.56910   0.00377   0.00167   0.02689   0.02852   1.59762
    A6        1.59369  -0.00105  -0.00047  -0.01215  -0.01294   1.58074
    A7        1.51581  -0.00173  -0.00430  -0.00336  -0.00763   1.50819
    A8        1.61096   0.00072   0.00285   0.00101   0.00375   1.61472
    A9        1.53941   0.00145   0.00337   0.00716   0.01072   1.55013
   A10        1.56322   0.00029   0.00013   0.00232   0.00182   1.56504
   A11        1.58712  -0.00273  -0.00019  -0.02425  -0.02446   1.56266
   A12        1.61666  -0.00320  -0.00465  -0.01916  -0.02374   1.59292
   A13        2.03436   0.00805  -0.01156   0.09357   0.04449   2.07885
   A14        2.01794   0.01008  -0.01049   0.09964   0.05163   2.06957
   A15        2.19331  -0.01475   0.04765  -0.08172  -0.07220   2.12111
   A16        3.17549  -0.00137  -0.00018  -0.01532  -0.01587   3.15962
   A17        3.12949   0.00097   0.00065   0.01104   0.01134   3.14083
   A18        3.12891   0.00160   0.00135   0.01035   0.01179   3.14070
   A19        3.22418  -0.00422  -0.00638  -0.02852  -0.03472   3.18946
[...]
 Rotational               0.889              2.981             32.954
 Vibrational             17.355             33.240             44.951
 Vibration     1          0.597              1.971              4.280
 Vibration     2          0.600              1.962              3.854
 Vibration     3          0.601              1.957              3.691
 Vibration     4          0.606              1.944              3.329
 Vibration     5          0.607              1.940              3.249
 Vibration     6          0.611              1.927              3.004
 Vibration     7          0.614              1.918              2.864
 Vibration     8          0.614              1.916              2.838
 Vibration     9          0.616              1.911              2.774
 Vibration    10          0.618              1.903              2.677
 Vibration    11          0.629              1.869              2.347
 Vibration    12          0.638              1.840              2.133
 Vibration    13          0.668              1.745              1.660
 Vibration    14          0.683              1.700              1.500
 Vibration    15          0.689              1.685              1.451
 Vibration    16          0.693              1.671              1.410
 Vibration    17          0.716              1.607              1.240
 Vibration    18          0.962              1.024              0.443
                       Q            Log10(Q)             Ln(Q)
 Total Bot       0.199958D+13         12.300939         28.323958
 Total V=0       0.137751D+21         20.139096         46.371981
 Vib (Bot)       0.126662D-02         -2.897352         -6.671400
 Vib (Bot)    1  0.314427D+01          0.497520          1.145583
 Vib (Bot)    2  0.252623D+01          0.402474          0.926730
 Vib (Bot)    3  0.232120D+01          0.365713          0.842084
 Vib (Bot)    4  0.192157D+01          0.283656          0.653142
 Vib (Bot)    5  0.184231D+01          0.265363          0.611021
 Vib (Bot)    6  0.161775D+01          0.208911          0.481036
 Vib (Bot)    7  0.150043D+01          0.176215          0.405749
 Vib (Bot)    8  0.147926D+01          0.170046          0.391545
 Vib (Bot)    9  0.142932D+01          0.155128          0.357196
 Vib (Bot)   10  0.135536D+01          0.132055          0.304068
 Vib (Bot)   11  0.112791D+01          0.052273          0.120362
 Vib (Bot)   12  0.996713D+00         -0.001430         -0.003293
 Vib (Bot)   13  0.746076D+00         -0.127217         -0.292928
 Vib (Bot)   14  0.671148D+00         -0.173182         -0.398766
 Vib (Bot)   15  0.649053D+00         -0.187720         -0.432241
 Vib (Bot)   16  0.630969D+00         -0.199992         -0.460498
 Vib (Bot)   17  0.557887D+00         -0.253454         -0.583599
 Vib (Bot)   18  0.246264D+00         -0.608600         -1.401352
 Vib (V=0)       0.872579D+05          4.940805         11.376623
 Vib (V=0)    1  0.368378D+01          0.566294          1.303940
 Vib (V=0)    2  0.307524D+01          0.487879          1.123383
 Vib (V=0)    3  0.287444D+01          0.458553          1.055858
 Vib (V=0)    4  0.248555D+01          0.395423          0.910496
 Vib (V=0)    5  0.240896D+01          0.381829          0.879193
 Vib (V=0)    6  0.219325D+01          0.341089          0.785387
 Vib (V=0)    7  0.208154D+01          0.318386          0.733110
 Vib (V=0)    8  0.206148D+01          0.314179          0.723425
 Vib (V=0)    9  0.201425D+01          0.304113          0.700245
 Vib (V=0)   10  0.194465D+01          0.288841          0.665080
 Vib (V=0)   11  0.173376D+01          0.238990          0.550294
 Vib (V=0)   12  0.161509D+01          0.208198          0.479393
 Vib (V=0)   13  0.139813D+01          0.145546          0.335132
 Vib (V=0)   14  0.133692D+01          0.126106          0.290370
 Vib (V=0)   15  0.131931D+01          0.120347          0.277109
 Vib (V=0)   16  0.130506D+01          0.115631          0.266249
 Vib (V=0)   17  0.124916D+01          0.096617          0.222470
 Vib (V=0)   18  0.105736D+01          0.024221          0.055772
 Electronic      0.100000D+01          0.000000          0.000000
 Translational   0.444339D+09          8.647714         19.912098
 Rotational      0.355285D+07          6.550577         15.083260
 ***** Axes restored to original set *****
 -------------------------------------------------------------------
 Center     Atomic                   Forces (Hartrees/Bohr)
 Number     Number              X              Y              Z
 -------------------------------------------------------------------
      1       78           0.000075844   -0.000135995   -0.000046076
      2       17           0.000073877    0.000033529   -0.000001161
      3       17           0.000034043    0.000038999   -0.000014300
      4       35          -0.000075316    0.000115494   -0.000038523
      5       35          -0.000028978    0.000008553    0.000007747
      6       17          -0.000092098    0.000156588   -0.000019075
      7        7           0.000020760   -0.000066182    0.000046409
      8        8          -0.000028261   -0.000075637    0.000032071
      9        8           0.000020130   -0.000075349    0.000032908
 -------------------------------------------------------------------
 Cartesian Forces:  Max     0.000156588 RMS     0.000064507
 FormGI is forming the generalized inverse of G from B-inverse, IUseBI=4.

 GradGradGradGradGradGradGradGradGradGradGradGradGradGradGradGradGradGrad
 Berny optimization.
 Internal  Forces:  Max     0.000137835 RMS     0.000027815
 Search for a local minimum.
 Step number   1 out of a maximum of    2
 All quantities printed in internal units (Hartrees-Bohrs-Radians)
 Second derivative matrix not updated -- analytic derivatives used.
 ITU=  0
     Eigenvalues ---    0.00365   0.04401   0.05937   0.06059   0.06698
     Eigenvalues ---    0.07480   0.08122   0.08727   0.08971   0.09788
     Eigenvalues ---    0.10138   0.10756   0.11187   0.11761   0.12029
     Eigenvalues ---    0.13122   0.16418   0.19953   0.32198   0.59676
     Eigenvalues ---    0.85156
 Angle between quadratic step and forces=  49.63 degrees.
 Linear search not attempted -- first point.
 Iteration  1 RMS(Cart)=  0.00054004 RMS(Int)=  0.00000014
 Iteration  2 RMS(Cart)=  0.00000015 RMS(Int)=  0.00000001
 Variable       Old X    -DE/DX   Delta X   Delta X   Delta X     New X
                                 (Linear)    (Quad)   (Total)
    R1        4.56459   0.00001   0.00000   0.00028   0.00028   4.56487
    R2        4.58158   0.00000   0.00000  -0.00003  -0.00003   4.58155
    R3        4.94572   0.00007   0.00000   0.00120   0.00120   4.94691
    R4        4.82550   0.00001   0.00000   0.00020   0.00020   4.82569
    R5        4.56400  -0.00014   0.00000  -0.00143  -0.00143   4.56256
    R6        3.99076   0.00000   0.00000  -0.00005  -0.00005   3.99071
    R7        2.29389   0.00000   0.00000  -0.00003  -0.00003   2.29387
    R8        2.29425   0.00000   0.00000  -0.00003  -0.00003   2.29422
    A1        1.55927   0.00000   0.00000  -0.00009  -0.00009   1.55917
    A2        1.57268  -0.00002   0.00000  -0.00026  -0.00026   1.57243
    A3        1.58745   0.00000   0.00000  -0.00003  -0.00003   1.58742
    A4        1.56485   0.00003   0.00000   0.00033   0.00033   1.56518
    A5        1.57782   0.00001   0.00000   0.00015   0.00015   1.57796
    A6        1.58622   0.00001   0.00000   0.00016   0.00016   1.58637
    A7        1.55665   0.00001   0.00000   0.00000   0.00000   1.55665
    A8        1.57753   0.00000   0.00000   0.00003   0.00003   1.57757
    A9        1.57502   0.00000   0.00000  -0.00014  -0.00014   1.57488
   A10        1.55017   0.00000   0.00000  -0.00003  -0.00003   1.55014
   A11        1.57121  -0.00002   0.00000  -0.00018  -0.00018   1.57103
   A12        1.57065  -0.00001   0.00000   0.00007   0.00007   1.57072
   A13        2.05571  -0.00002   0.00000  -0.00010  -0.00010   2.05561
   A14        2.05773   0.00001   0.00000   0.00001   0.00001   2.05774
   A15        2.16973   0.00001   0.00000   0.00009   0.00009   2.16982
   A16        3.14548   0.00001   0.00000   0.00006   0.00006   3.14555
   A17        3.14672  -0.00001   0.00000  -0.00013  -0.00013   3.14659
   A18        3.13754   0.00001   0.00000   0.00007   0.00007   3.13761
   A19        3.13545   0.00002   0.00000   0.00040   0.00040   3.13585
   A20        3.15536   0.00001   0.00000   0.00018   0.00018   3.15554
   A21        3.14867  -0.00002   0.00000  -0.00015  -0.00015   3.14853
    D1       -2.37903   0.00000   0.00000  -0.00080  -0.00080  -2.37982
    D2        0.75564   0.00000   0.00000  -0.00089  -0.00089   0.75475
    D3       -0.81968  -0.00001   0.00000  -0.00089  -0.00089  -0.82057
    D4        2.31499  -0.00001   0.00000  -0.00099  -0.00099   2.31400
    D5        2.31671   0.00000   0.00000  -0.00076  -0.00076   2.31594
    D6       -0.83181   0.00000   0.00000  -0.00086  -0.00086  -0.83267
    D7        0.76654   0.00000   0.00000  -0.00074  -0.00074   0.76580
    D8       -2.38198   0.00000   0.00000  -0.00083  -0.00083  -2.38281
         Item               Value     Threshold  Converged?
 Maximum Force            0.000138     0.000450     YES
 RMS     Force            0.000028     0.000300     YES
 Maximum Displacement     0.001371     0.001800     YES
 RMS     Displacement     0.000540     0.001200     YES
 Predicted change in Energy=-1.724761D-07
 Optimization completed.
    -- Stationary point found.
                           ----------------------------
                           !   Optimized Parameters   !
                           ! (Angstroms and Degrees)  !
 --------------------------                            --------------------------
 ! Name  Definition              Value          Derivative Info.                !
 --------------------------------------------------------------------------------
 ! R1    R(1,2)                  2.4155         -DE/DX =    0.0                 !
 ! R2    R(1,3)                  2.4245         -DE/DX =    0.0                 !
 ! R3    R(1,4)                  2.6172         -DE/DX =    0.0001              !
 ! R4    R(1,5)                  2.5535         -DE/DX =    0.0                 !
 ! R5    R(1,6)                  2.4152         -DE/DX =   -0.0001              !
 ! R6    R(1,7)                  2.1118         -DE/DX =    0.0                 !
 ! R7    R(7,8)                  1.2139         -DE/DX =    0.0                 !
 ! R8    R(7,9)                  1.2141         -DE/DX =    0.0                 !
 ! A1    A(2,1,3)               89.3394         -DE/DX =    0.0                 !
 ! A2    A(2,1,4)               90.1081         -DE/DX =    0.0                 !
 ! A3    A(2,1,5)               90.9543         -DE/DX =    0.0                 !
 ! A4    A(2,1,7)               89.6596         -DE/DX =    0.0                 !
 ! A5    A(3,1,4)               90.4023         -DE/DX =    0.0                 !
 ! A6    A(3,1,6)               90.8835         -DE/DX =    0.0                 !
 ! A7    A(3,1,7)               89.1895         -DE/DX =    0.0                 !
 ! A8    A(4,1,5)               90.386          -DE/DX =    0.0                 !
 ! A9    A(4,1,6)               90.2422         -DE/DX =    0.0                 !
 ! A10   A(5,1,6)               88.818          -DE/DX =    0.0                 !
 ! A11   A(5,1,7)               90.0234         -DE/DX =    0.0                 !
 ! A12   A(6,1,7)               89.9918         -DE/DX =    0.0                 !
 ! A13   A(1,7,8)              117.7834         -DE/DX =    0.0                 !
 ! A14   A(1,7,9)              117.8991         -DE/DX =    0.0                 !
 ! A15   A(8,7,9)              124.3161         -DE/DX =    0.0                 !
 ! A16   L(2,1,6,3,-1)         180.2229         -DE/DX =    0.0                 !
 ! A17   L(3,1,5,2,-1)         180.2937         -DE/DX =    0.0                 !
 ! A18   L(4,1,7,2,-1)         179.7677         -DE/DX =    0.0                 !
 ! A19   L(2,1,6,3,-2)         179.6481         -DE/DX =    0.0                 !
 ! A20   L(3,1,5,2,-2)         180.7889         -DE/DX =    0.0                 !
 ! A21   L(4,1,7,2,-2)         180.4056         -DE/DX =    0.0                 !
 ! D1    D(2,1,7,8)           -136.3083         -DE/DX =    0.0                 !
 ! D2    D(2,1,7,9)             43.2948         -DE/DX =    0.0                 !
 ! D3    D(3,1,7,8)            -46.9642         -DE/DX =    0.0                 !
 ! D4    D(3,1,7,9)            132.6389         -DE/DX =    0.0                 !
 ! D5    D(5,1,7,8)            132.7375         -DE/DX =    0.0                 !
 ! D6    D(5,1,7,9)            -47.6594         -DE/DX =    0.0                 !
 ! D7    D(6,1,7,8)             43.9195         -DE/DX =    0.0                 !
 ! D8    D(6,1,7,9)           -136.4774         -DE/DX =    0.0                 !
 --------------------------------------------------------------------------------
 GradGradGradGradGradGradGradGradGradGradGradGradGradGradGradGradGradGrad

 1\1\GINC-NEQC17\Freq\RB3LYP\Gen\Br2Cl3N1O2Pt1(2-)\DIEGO\18-Aug-2021\0\
 \#N Geom=AllCheck Guess=TCheck SCRF=Check GenChk RB3LYP/ChkBas Freq\\E
 strutura 30\\-2,1\Pt,-0.3688437712,0.3741405586,-0.0889057242\Cl,-0.36
 2797774,2.7834259313,-0.2616451586\Cl,-0.5549575782,0.2296279075,-2.50
 18949754\Br,-2.976803405,0.3914063048,0.1296745921\Br,-0.1378375458,0.
 512981122,2.4503746427\Cl,-0.3593802443,-2.0342176417,0.092017783\N,1.
 7342331784,0.3676883512,-0.2807452601\O,2.2329863755,-0.4612704401,-1.
 0139363566\O,2.3641266147,1.1971497463,0.343100287\\Version=EM64L-G09R
 evD.01\State=1-A\HF=-6852.541032\RMSD=1.579e-09\RMSF=6.451e-05\ZeroPoi
 nt=0.0170407\Thermal=0.0304894\Dipole=-0.0969462,0.0481007,0.8600816\D
 ipoleDeriv=1.1953065,-0.008261,0.0504792,-0.0141965,1.2159998,-0.10919
 99,0.0036949,-0.1043897,1.4131411,-0.1835165,-0.0221827,0.0175957,0.04
 85741,-1.315484,0.0991868,0.0009704,0.1181073,-0.1555278,-0.1993574,-0
 .0256436,-0.0683742,-0.0171114,-0.1641724,-0.074501,-0.1440556,-0.0651
 974,-1.4982484,-1.6448863,0.0112107,0.1249508,0.0174654,-0.2267216,0.0
 02711,0.0967241,0.0012536,-0.2263381,-0.1397033,0.0185915,-0.1334199,0
 .0052017,-0.1113293,-0.0484571,-0.0391892,-0.0648983,-1.2823819,-0.169
 422,0.0182831,-0.0224292,-0.0416334,-1.3076902,0.0885896,-0.0005676,0.
 0822705,-0.1398616,3.2453934,0.0670769,-0.3170345,0.0693082,1.5123697,
 0.8831969,-0.222357,0.8848622,1.2060957,-1.9825064,0.3517305,0.4739713
 ,0.5273033,-0.8072277,-0.4860301,0.6049276,-0.4688717,-0.7363824,-2.12
 13081,-0.4108055,-0.1257392,-0.5949114,-0.7957444,-0.3554962,-0.300147
 5,-0.3831366,-0.5804966\Polar=219.3870248,0.4139431,183.5060996,-1.838
 8621,7.8478061,208.7332495\PG=C01 [X(Br2Cl3N1O2Pt1)]\NImag=0\\0.183717
 56,0.00151861,0.26168079,0.00502711,0.00785516,0.24062134,-0.01431409,
 -0.00197140,-0.00015994,0.01780865,-0.00044606,-0.08576494,0.00399299,
 0.00179137,0.10203533,0.00024844,0.00467359,-0.01815317,-0.00021591,-0
 .00561669,0.01493388,-0.01400785,-0.00006362,-0.00462969,0.00077516,-0
 .00037525,0.00049755,0.01817453,-0.00077441,-0.01709284,-0.00389301,-0
 .00032906,-0.00198182,-0.00585378,-0.00150289,0.01616638,-0.00571199,-
 0.00441611,-0.08172709,0.00067157,-0.00294584,-0.00005949,0.00675933,0
 .00477573,0.09594415,-0.05012659,-0.00006761,0.00234307,-0.00306951,-0
 .00384126,0.00050110,-0.00157426,0.00108180,0.00251021,0.06907100,-0.0
 0001650,-0.01755127,-0.00080508,-0.00579161,-0.00126422,0.00046361,0.0
 0128410,0.00048045,-0.00023613,-0.00048379,0.01236957,0.00263837,-0.00
 080227,-0.01770650,0.00034658,0.00041787,0.00100599,0.00446770,-0.0002
 5676,-0.00086333,-0.00430140,-0.00070854,0.01360283,-0.01339608,-0.000
 68221,-0.00643343,0.00025744,0.00002658,0.00077550,0.00306491,-0.00004
 215,-0.00112170,-0.00214271,0.00003906,-0.00404595,0.01488618,0.000059
 64,-0.01528909,-0.00350978,-0.00092299,-0.00053254,0.00472597,-0.00003
 805,0.00329278,-0.00057836,0.00058997,0.00068883,0.00061657,0.00124143
 ,0.01314003,-0.00517787,-0.00361480,-0.06834948,0.00135468,0.00175774,
 -0.00087384,-0.00119335,-0.00064019,-0.01055527,-0.00207303,0.00071087
 ,-0.00135316,0.00437530,0.00360106,0.08615778,-0.01480486,0.00191452,-
 0.00014096,0.00368557,-0.00009959,0.00002273,0.00043192,-0.00011174,0.
 00026795,-0.00338532,0.00480553,-0.00027595,0.00014204,-0.00049308,-0.
 00051308,0.01823177,0.00024094,-0.08631596,0.00340904,0.00009602,-0.01
 086151,0.00144400,-0.00057648,-0.00016994,0.00281489,0.00254077,-0.000
 50928,0.00005848,-0.00000391,-0.00126459,-0.00281411,0.00052208,0.0998
 1105,-0.00068831,0.00349073,-0.01806094,0.00000774,0.00120045,0.003809
 10,0.00050126,0.00508784,-0.00147809,-0.00027474,-0.00011467,-0.000117
 26,-0.00027124,-0.00525256,-0.00205026,-0.00188723,-0.00603506,0.01835
 926,-0.06334683,0.00156865,0.00120032,-0.00553903,0.00080823,-0.000215
 20,-0.00586066,0.00059290,-0.00159185,0.02110536,-0.00033456,-0.000991
 59,-0.00427071,-0.00056202,0.00130141,-0.00478621,-0.00073859,0.001345
 21,0.54687316,0.00107025,-0.04085864,0.01433142,0.00140284,-0.00053667
 ,-0.00147468,0.00341637,-0.00112162,-0.00000677,0.00007441,0.00673978,
 -0.00075059,-0.00258403,-0.00069098,0.00052398,-0.00132008,-0.00052588
 ,-0.00171133,0.03642204,0.62465310,0.00179241,0.01443303,-0.04629759,-
 0.00316618,0.00051210,-0.00025239,-0.00210187,-0.00161622,-0.00084715,
 -0.00149652,-0.00070574,0.00712860,0.00305200,-0.00119095,-0.00129165,
 0.00433590,0.00036656,-0.00114861,-0.00688216,0.38137566,0.47435019,-0
 .00517767,0.01652351,0.01552603,0.00085189,0.00053934,-0.00003889,-0.0
 0183916,0.00116616,-0.00151870,-0.01464480,-0.00104926,0.00000798,0.00
 079564,0.00004412,0.00040066,-0.00017285,-0.00164717,0.00137609,-0.216
 07717,0.14820470,0.13799254,0.18788820,0.00431268,0.00063110,-0.011325
 50,0.00021550,0.00004610,0.00052196,-0.00125731,-0.00011161,0.00026162
 ,0.00568508,-0.00054286,0.00027378,0.00069084,0.00043006,0.00013918,-0
 .00500973,-0.00029479,0.00268578,0.14252417,-0.29388533,-0.21215972,-0
 .14764789,0.37357387,0.00510606,-0.01243077,0.00294754,0.00091619,0.00
 006641,0.00029549,-0.00442684,0.00184650,-0.00060349,0.00603931,0.0007
 6790,-0.00112590,-0.00026249,0.00045982,0.00002466,-0.00070630,0.00056
 001,0.00013582,0.13329121,-0.21277022,-0.24214820,-0.13767214,0.302364
 09,0.28723537,-0.00854359,-0.01874046,-0.01273250,-0.00045608,0.001596
 65,-0.00157533,0.00083541,-0.00008060,-0.00026482,-0.01523318,0.001547
 02,0.00215426,0.00066330,0.00008099,0.00152528,0.00065794,-0.00043366,
 -0.00010879,-0.26809790,-0.18668649,-0.13352612,0.04837592,0.00048667,
 -0.00228500,0.24179817,-0.00596514,0.00056085,-0.01005524,0.00550934,-
 0.00113974,0.00111602,-0.00088688,0.00053823,0.00033097,-0.00557937,-0
 .00041099,0.00115147,0.00131440,0.00022551,0.00033628,-0.00020790,0.00
 013091,0.00064881,-0.18028082,-0.29377375,-0.18101473,-0.01613350,-0.0
 7984654,-0.08086374,0.20222987,0.37371551,-0.00323422,-0.00918856,0.00
 672589,0.00024527,0.00061496,-0.00070558,0.00012591,0.00054990,0.00018
 976,-0.00324800,0.00062778,-0.00057126,0.00393200,0.00112822,-0.001708
 77,-0.00110305,0.00019619,0.00055098,-0.12745735,-0.17951745,-0.189493
 20,-0.01607358,-0.08276119,-0.04676128,0.14681302,0.26835016,0.2317734
 5\\-0.00007584,0.00013599,0.00004608,-0.00007388,-0.00003353,0.0000011
 6,-0.00003404,-0.00003900,0.00001430,0.00007532,-0.00011549,0.00003852
 ,0.00002898,-0.00000855,-0.00000775,0.00009210,-0.00015659,0.00001908,
 -0.00002076,0.00006618,-0.00004641,0.00002826,0.00007564,-0.00003207,-
 0.00002013,0.00007535,-0.00003291\\\@


 GROWING OLD ISN'T SO BAD -- WHEN YOU CONSIDER THE ALTERNATIVE.

                     -- MAURICE CHEVALIER
 Job cpu time:       0 days  0 hours 12 minutes 36.4 seconds.
 File lengths (MBytes):  RWF=     98 Int=      0 D2E=      0 Chk=      7 Scr=      1
 Normal termination of Gaussian 09 at Wed Aug 18 04:19:31 2021.
