 Entering Gaussian System, Link 0=g09
 Input=estrutura31_D2O.com
 Output=estrutura31_D2O.log
 Initial command:
 /home/scr/programs/g09/l1.exe "/home/scr/diego/Gau-16042.inp" -scrdir="/home/scr/diego/"
 Entering Link 1 = /home/scr/programs/g09/l1.exe PID=     16044.
  
 Copyright (c) 1988,1990,1992,1993,1995,1998,2003,2009,2013,
            Gaussian, Inc.  All Rights Reserved.
  
 This is part of the Gaussian(R) 09 program.  It is based on
 the Gaussian(R) 03 system (copyright 2003, Gaussian, Inc.),
 the Gaussian(R) 98 system (copyright 1998, Gaussian, Inc.),
 the Gaussian(R) 94 system (copyright 1995, Gaussian, Inc.),
 the Gaussian 92(TM) system (copyright 1992, Gaussian, Inc.),
 the Gaussian 90(TM) system (copyright 1990, Gaussian, Inc.),
 the Gaussian 88(TM) system (copyright 1988, Gaussian, Inc.),
 the Gaussian 86(TM) system (copyright 1986, Carnegie Mellon
 University), and the Gaussian 82(TM) system (copyright 1983,
 Carnegie Mellon University). Gaussian is a federally registered
 trademark of Gaussian, Inc.
  
 This software contains proprietary and confidential information,
 including trade secrets, belonging to Gaussian, Inc.
  
 This software is provided under written license and may be
 used, copied, transmitted, or stored only in accord with that
 written license.
  
 The following legend is applicable only to US Government
 contracts under FAR:
  
                    RESTRICTED RIGHTS LEGEND
  
 Use, reproduction and disclosure by the US Government is
 subject to restrictions as set forth in subparagraphs (a)
 and (c) of the Commercial Computer Software - Restricted
 Rights clause in FAR 52.227-19.
  
 Gaussian, Inc.
 340 Quinnipiac St., Bldg. 40, Wallingford CT 06492
  
  
 ---------------------------------------------------------------
 Warning -- This program may not be used in any manner that
 competes with the business of Gaussian, Inc. or will provide
 assistance to any competitor of Gaussian, Inc.  The licensee
 of this program is prohibited from giving any competitor of
 Gaussian, Inc. access to this program.  By using this program,
 the user acknowledges that Gaussian, Inc. is engaged in the
 business of creating and licensing software in the field of
 computational chemistry and represents and warrants to the
 licensee that it is not a competitor of Gaussian, Inc. and that
 it will not use this program in any manner prohibited above.
 ---------------------------------------------------------------
  

 Cite this work as:
 Gaussian 09, Revision D.01,
 M. J. Frisch, G. W. Trucks, H. B. Schlegel, G. E. Scuseria, 
 M. A. Robb, J. R. Cheeseman, G. Scalmani, V. Barone, B. Mennucci, 
 G. A. Petersson, H. Nakatsuji, M. Caricato, X. Li, H. P. Hratchian, 
 A. F. Izmaylov, J. Bloino, G. Zheng, J. L. Sonnenberg, M. Hada, 
 M. Ehara, K. Toyota, R. Fukuda, J. Hasegawa, M. Ishida, T. Nakajima, 
 Y. Honda, O. Kitao, H. Nakai, T. Vreven, J. A. Montgomery, Jr., 
 J. E. Peralta, F. Ogliaro, M. Bearpark, J. J. Heyd, E. Brothers, 
 K. N. Kudin, V. N. Staroverov, T. Keith, R. Kobayashi, J. Normand, 
 K. Raghavachari, A. Rendell, J. C. Burant, S. S. Iyengar, J. Tomasi, 
 M. Cossi, N. Rega, J. M. Millam, M. Klene, J. E. Knox, J. B. Cross, 
 V. Bakken, C. Adamo, J. Jaramillo, R. Gomperts, R. E. Stratmann, 
 O. Yazyev, A. J. Austin, R. Cammi, C. Pomelli, J. W. Ochterski, 
 R. L. Martin, K. Morokuma, V. G. Zakrzewski, G. A. Voth, 
 P. Salvador, J. J. Dannenberg, S. Dapprich, A. D. Daniels, 
 O. Farkas, J. B. Foresman, J. V. Ortiz, J. Cioslowski, 
 and D. J. Fox, Gaussian, Inc., Wallingford CT, 2013.
 
 ******************************************
 Gaussian 09:  EM64L-G09RevD.01 24-Apr-2013
                18-Aug-2021 
 ******************************************
 %mem=15gb
 %nproc=8
 Will use up to    8 processors via shared memory.
 ------------------------------------------------------------
 #b3lyp/gen pseudo=read opt freq=noraman scrf=(solvent=water)
 ------------------------------------------------------------
 1/14=-1,18=20,19=15,26=3,38=1/1,3;
 2/9=110,12=2,17=6,18=5,40=1/2;
 3/5=7,11=2,16=1,17=8,25=1,30=1,70=2201,71=1,72=1,74=-5/1,2,3;
 4//1;
 5/5=2,38=5,53=1/2;
 6/7=2,8=2,9=2,10=2,28=1/1;
 7//1,2,3,16;
 1/14=-1,18=20,19=15,26=3/3(2);
 2/9=110/2;
 99//99;
 2/9=110/2;
 3/5=7,6=1,11=2,16=1,17=8,25=1,30=1,70=2205,71=1,72=1,74=-5,82=7/1,2,3;
 4/5=5,16=3,69=1/1;
 5/5=2,38=5,53=1/2;
 7//1,2,3,16;
 1/14=-1,18=20,19=15,26=3/3(-5);
 2/9=110/2;
 6/7=2,8=2,9=2,10=2,19=2,28=1/1;
 99/9=1/99;
 ------------
 Estrutura 31
 ------------
 Symbolic Z-matrix:
 Charge = -2 Multiplicity = 1
 Pt                   -0.31955   0.33835   0. 
 N                     1.67045   0.33835   0. 
 O                     2.12378  -0.75896  -0.66334 
 O                     2.12378   1.46147  -0.61862 
 Br                   -0.31955   0.33835  -2.43 
 Br                   -0.31955   2.76835   0. 
 Br                   -0.31955  -2.09165   0. 
 Cl                   -2.59955   0.33835   0. 
 Cl                   -0.31955   0.33835   2.28 
 

 GradGradGradGradGradGradGradGradGradGradGradGradGradGradGradGradGradGrad
 Berny optimization.
 Initialization pass.
                           ----------------------------
                           !    Initial Parameters    !
                           ! (Angstroms and Degrees)  !
 --------------------------                            --------------------------
 ! Name  Definition              Value          Derivative Info.                !
 --------------------------------------------------------------------------------
 ! R1    R(1,2)                  1.99           estimate D2E/DX2                !
 ! R2    R(1,5)                  2.43           estimate D2E/DX2                !
 ! R3    R(1,6)                  2.43           estimate D2E/DX2                !
 ! R4    R(1,7)                  2.43           estimate D2E/DX2                !
 ! R5    R(1,8)                  2.28           estimate D2E/DX2                !
 ! R6    R(1,9)                  2.28           estimate D2E/DX2                !
 ! R7    R(2,3)                  1.36           estimate D2E/DX2                !
 ! R8    R(2,4)                  1.36           estimate D2E/DX2                !
 ! A1    A(2,1,5)               90.0            estimate D2E/DX2                !
 ! A2    A(2,1,6)               90.0            estimate D2E/DX2                !
 ! A3    A(2,1,7)               90.0            estimate D2E/DX2                !
 ! A4    A(2,1,9)               90.0            estimate D2E/DX2                !
 ! A5    A(5,1,6)               90.0            estimate D2E/DX2                !
 ! A6    A(5,1,7)               90.0            estimate D2E/DX2                !
 ! A7    A(5,1,8)               90.0            estimate D2E/DX2                !
 ! A8    A(6,1,8)               90.0            estimate D2E/DX2                !
 ! A9    A(6,1,9)               90.0            estimate D2E/DX2                !
 ! A10   A(7,1,8)               90.0            estimate D2E/DX2                !
 ! A11   A(7,1,9)               90.0            estimate D2E/DX2                !
 ! A12   A(8,1,9)               90.0            estimate D2E/DX2                !
 ! A13   A(1,2,3)              109.4712         estimate D2E/DX2                !
 ! A14   A(1,2,4)              109.4712         estimate D2E/DX2                !
 ! A15   A(3,2,4)              109.4713         estimate D2E/DX2                !
 ! A16   L(2,1,8,5,-1)         180.0            estimate D2E/DX2                !
 ! A17   L(5,1,9,2,-1)         180.0            estimate D2E/DX2                !
 ! A18   L(6,1,7,2,-1)         180.0            estimate D2E/DX2                !
 ! A19   L(2,1,8,5,-2)         180.0            estimate D2E/DX2                !
 ! A20   L(5,1,9,2,-2)         180.0            estimate D2E/DX2                !
 ! A21   L(6,1,7,2,-2)         180.0            estimate D2E/DX2                !
 ! D1    D(5,1,2,3)            -58.8462         estimate D2E/DX2                !
 ! D2    D(5,1,2,4)             61.1538         estimate D2E/DX2                !
 ! D3    D(6,1,2,3)           -148.8462         estimate D2E/DX2                !
 ! D4    D(6,1,2,4)            -28.8462         estimate D2E/DX2                !
 ! D5    D(7,1,2,3)             31.1538         estimate D2E/DX2                !
 ! D6    D(7,1,2,4)            151.1538         estimate D2E/DX2                !
 ! D7    D(9,1,2,3)            121.1538         estimate D2E/DX2                !
 ! D8    D(9,1,2,4)           -118.8462         estimate D2E/DX2                !
 --------------------------------------------------------------------------------
 Trust Radius=3.00D-01 FncErr=1.00D-07 GrdErr=1.00D-06
 Number of steps in this run=     47 maximum allowed number of steps=    100.
 GradGradGradGradGradGradGradGradGradGradGradGradGradGradGradGradGradGrad

                          Input orientation:                          
 ---------------------------------------------------------------------
 Center     Atomic      Atomic             Coordinates (Angstroms)
 Number     Number       Type             X           Y           Z
 ---------------------------------------------------------------------
      1         78           0       -0.319549    0.338346    0.000000
      2          7           0        1.670451    0.338346    0.000000
      3          8           0        2.123784   -0.758955   -0.663340
      4          8           0        2.123784    1.461466   -0.618620
      5         35           0       -0.319549    0.338346   -2.430000
      6         35           0       -0.319549    2.768346    0.000000
      7         35           0       -0.319549   -2.091654    0.000000
      8         17           0       -2.599549    0.338346    0.000000
      9         17           0       -0.319549    0.338346    2.280000
 ---------------------------------------------------------------------
                    Distance matrix (angstroms):
                    1          2          3          4          5
     1  Pt   0.000000
     2  N    1.990000   0.000000
     3  O    2.759341   1.360000   0.000000
     4  O    2.759341   1.360000   2.220871   0.000000
     5  Br   2.430000   3.140860   3.208587   3.242279   0.000000
     6  Br   2.430000   3.140860   4.341860   2.839102   3.436539
     7  Br   2.430000   3.140860   2.861116   4.356286   3.436539
     8  Cl   2.280000   4.270000   4.894279   4.894279   3.332161
     9  Cl   2.280000   3.026301   3.979597   3.953893   4.710000
                    6          7          8          9
     6  Br   0.000000
     7  Br   4.860000   0.000000
     8  Cl   3.332161   3.332161   0.000000
     9  Cl   3.332161   3.332161   3.224407   0.000000
 Stoichiometry    Br3Cl2NO2Pt(2-)
 Framework group  C1[X(Br3Cl2NO2Pt)]
 Deg. of freedom    21
 Full point group                 C1      NOp   1
 Largest Abelian subgroup         C1      NOp   1
 Largest concise Abelian subgroup C1      NOp   1
                         Standard orientation:                         
 ---------------------------------------------------------------------
 Center     Atomic      Atomic             Coordinates (Angstroms)
 Number     Number       Type             X           Y           Z
 ---------------------------------------------------------------------
      1         78           0        0.000543   -0.242980    0.001952
      2          7           0       -0.003503    0.259217    1.927538
      3          8           0        1.094106    1.014077    2.201473
      4          8           0       -1.126390    0.973663    2.207347
      5         35           0        0.005064    2.108367   -0.611274
      6         35           0       -2.429448   -0.239852   -0.003970
      7         35           0        2.430534   -0.246108    0.007874
      8         17           0        0.005179   -0.818361   -2.204247
      9         17           0       -0.003699   -2.449182    0.577325
 ---------------------------------------------------------------------
 Rotational constants (GHZ):      0.4786642      0.3637581      0.3140213
 General basis read from cards:  (5D, 7F)
 ======================================================================================================
                                       Pseudopotential Parameters
 ======================================================================================================
  Center     Atomic      Valence      Angular      Power
  Number     Number     Electrons     Momentum     of R      Exponent        Coefficient   SO-Coeffient
 ======================================================================================================
    1         78           18
                                      G and up 
                                                     1      728.9394056       -0.16192680    0.00000000
                                                     2      320.6567800    -1320.28738520    0.00000000
                                                     2       52.8680174     -298.31781350    0.00000000
                                                     2       12.0280128      -87.58370650    0.00000000
                                                     2        3.5238913       -8.14932740    0.00000000
                                      S - G
                                                     0      409.4437358        2.73342180    0.00000000
                                                     1      274.5419231       59.70243290    0.00000000
                                                     2      127.5658570      891.45895500    0.00000000
                                                     2       32.9036631      368.44676560    0.00000000
                                                     2        5.0593880      238.02630900    0.00000000
                                                     2        4.1506556     -107.05564540    0.00000000
                                      P - G
                                                     0      466.1728892        1.88785680    0.00000000
                                                     1      120.7888259       76.01386290    0.00000000
                                                     2       36.4118791      343.55111160    0.00000000
                                                     2        5.6985408      119.49117860    0.00000000
                                      D - G
                                                     0      249.5650763        2.93436780    0.00000000
                                                     1      126.6678585       59.33065710    0.00000000
                                                     2       63.1430586      452.44451940    0.00000000
                                                     2       17.9059470      210.47694790    0.00000000
                                                     2        4.2239373       58.62541120    0.00000000
                                      F - G
                                                     0      121.8158799        3.95342530    0.00000000
                                                     1       60.8757030       53.85551820    0.00000000
                                                     2       31.4767147      247.43051330    0.00000000
                                                     2        9.8811751      127.81879760    0.00000000
                                                     2        2.7319874       15.37720460    0.00000000
    2          7
                                   No pseudopotential on this center.
    3          8
                                   No pseudopotential on this center.
    4          8
                                   No pseudopotential on this center.
    5         35
                                   No pseudopotential on this center.
    6         35
                                   No pseudopotential on this center.
    7         35
                                   No pseudopotential on this center.
    8         17
                                   No pseudopotential on this center.
    9         17
                                   No pseudopotential on this center.
 ======================================================================================================
 There are   212 symmetry adapted cartesian basis functions of A   symmetry.
 There are   196 symmetry adapted basis functions of A   symmetry.
   196 basis functions,   432 primitive gaussians,   212 cartesian basis functions
    91 alpha electrons       91 beta electrons
       nuclear repulsion energy      2287.6523698451 Hartrees.
 NAtoms=    9 NActive=    9 NUniq=    9 SFac= 1.00D+00 NAtFMM=   60 NAOKFM=F Big=F
 Integral buffers will be    131072 words long.
 Raffenetti 2 integral format.
 Two-electron integral symmetry is turned on.
 ------------------------------------------------------------------------------
 Polarizable Continuum Model (PCM)
 =================================
 Model                : PCM (using non-symmetric T matrix).
 Atomic radii         : UFF (Universal Force Field).
 Polarization charges : Total charges.
 Charge compensation  : None.
 Solution method      : On-the-fly selection.
 Cavity type          : Scaled VdW (van der Waals Surface) (Alpha=1.100).
 Cavity algorithm     : GePol (No added spheres)
                        Default sphere list used, NSphG=    9.
                        Lebedev-Laikov grids with approx.  5.0 points / Ang**2.
                        Smoothing algorithm: Karplus/York (Gamma=1.0000).
                        Polarization charges: spherical gaussians, with
                                              point-specific exponents (IZeta= 3).
                        Self-potential: point-specific (ISelfS= 7).
                        Self-field    : sphere-specific E.n sum rule (ISelfD= 2).
 1st derivatives      : Analytical E(r).r(x)/FMM algorithm (CHGder, D1EAlg=3).
                        Cavity 1st derivative terms included.
 Solvent              : Water, Eps=  78.355300 Eps(inf)=   1.777849
 ------------------------------------------------------------------------------
 Spheres list:
 ISph  on   Nord     Re0    Alpha      Xe            Ye            Ze
    1  Pt      1    1.3770  1.100      0.000543     -0.242980      0.001952
    2   N      2    1.8300  1.100     -0.003503      0.259217      1.927538
    3   O      3    1.7500  1.100      1.094106      1.014077      2.201473
    4   O      4    1.7500  1.100     -1.126390      0.973663      2.207347
    5  Br      5    2.0945  1.100      0.005064      2.108367     -0.611274
    6  Br      6    2.0945  1.100     -2.429448     -0.239852     -0.003970
    7  Br      7    2.0945  1.100      2.430534     -0.246108      0.007874
    8  Cl      8    1.9735  1.100      0.005179     -0.818361     -2.204247
    9  Cl      9    1.9735  1.100     -0.003699     -2.449182      0.577325
 ------------------------------------------------------------------------------
 One-electron integrals computed using PRISM.
   1 Symmetry operations used in ECPInt.
 ECPInt:  NShTT=    3081 NPrTT=   16147 LenC2=    2814 LenP2D=   10179.
 LDataN:  DoStor=T MaxTD1= 6 Len=  172
 NBasis=   196 RedAO= T EigKep=  4.77D-03  NBF=   196
 NBsUse=   196 1.00D-06 EigRej= -1.00D+00 NBFU=   196
 Defaulting to unpruned grid for atomic number  78.
 ExpMin= 2.90D-02 ExpMax= 1.13D+05 ExpMxC= 1.70D+04 IAcc=3 IRadAn=         5 AccDes= 0.00D+00
 Harris functional with IExCor=  402 and IRadAn=       5 diagonalized for initial guess.
 HarFok:  IExCor=  402 AccDes= 0.00D+00 IRadAn=         5 IDoV= 1 UseB2=F ITyADJ=14
 ICtDFT=  3500011 ScaDFX=  1.000000  1.000000  1.000000  1.000000
 Defaulting to unpruned grid for atomic number  78.
 Defaulting to unpruned grid for atomic number  78.
 Defaulting to unpruned grid for atomic number  78.
 Defaulting to unpruned grid for atomic number  78.
 Defaulting to unpruned grid for atomic number  78.
 Defaulting to unpruned grid for atomic number  78.
 Defaulting to unpruned grid for atomic number  78.
 Defaulting to unpruned grid for atomic number  78.
 FoFCou: FMM=F IPFlag=           0 FMFlag=      100000 FMFlg1=           0
         NFxFlg=           0 DoJE=T BraDBF=F KetDBF=T FulRan=T
         wScrn=  0.000000 ICntrl=     500 IOpCl=  0 I1Cent=   200000004 NGrid=           0
         NMat0=    1 NMatS0=      1 NMatT0=    0 NMatD0=    1 NMtDS0=    0 NMtDT0=    0
 Petite list used in FoFCou.
 Keep R1 ints in memory in canonical form, NReq=192170999.
 Requested convergence on RMS density matrix=1.00D-08 within 128 cycles.
 Requested convergence on MAX density matrix=1.00D-06.
 Requested convergence on             energy=1.00D-06.
 No special actions if energy rises.
 Defaulting to unpruned grid for atomic number  78.
 Defaulting to unpruned grid for atomic number  78.
 Defaulting to unpruned grid for atomic number  78.
 Defaulting to unpruned grid for atomic number  78.
 Defaulting to unpruned grid for atomic number  78.
 Defaulting to unpruned grid for atomic number  78.
 Defaulting to unpruned grid for atomic number  78.
 Defaulting to unpruned grid for atomic number  78.
 Inv3:  Mode=1 IEnd=     6741003.
 Iteration    1 A*A^-1 deviation from unit magnitude is 5.55D-15 for    594.
 Iteration    1 A*A^-1 deviation from orthogonality  is 5.82D-15 for   1336    845.
 Iteration    1 A^-1*A deviation from unit magnitude is 7.77D-15 for    509.
 Iteration    1 A^-1*A deviation from orthogonality  is 3.63D-13 for    788    317.
 EnCoef did     4 forward-backward iterations
 EnCoef did   100 forward-backward iterations
 Error on total polarization charges =  0.01674
 SCF Done:  E(RB3LYP) =  -8966.23073628     A.U. after   18 cycles
            NFock= 18  Conv=0.72D-08     -V/T= 2.0106

 **********************************************************************

            Population analysis using the SCF density.

 **********************************************************************

 Orbital symmetries:
       Occupied  (A) (A) (A) (A) (A) (A) (A) (A) (A) (A) (A) (A)
                 (A) (A) (A) (A) (A) (A) (A) (A) (A) (A) (A) (A)
                 (A) (A) (A) (A) (A) (A) (A) (A) (A) (A) (A) (A)
                 (A) (A) (A) (A) (A) (A) (A) (A) (A) (A) (A) (A)
                 (A) (A) (A) (A) (A) (A) (A) (A) (A) (A) (A) (A)
                 (A) (A) (A) (A) (A) (A) (A) (A) (A) (A) (A) (A)
                 (A) (A) (A) (A) (A) (A) (A) (A) (A) (A) (A) (A)
                 (A) (A) (A) (A) (A) (A) (A)
       Virtual   (A) (A) (A) (A) (A) (A) (A) (A) (A) (A) (A) (A)
                 (A) (A) (A) (A) (A) (A) (A) (A) (A) (A) (A) (A)
                 (A) (A) (A) (A) (A) (A) (A) (A) (A) (A) (A) (A)
                 (A) (A) (A) (A) (A) (A) (A) (A) (A) (A) (A) (A)
                 (A) (A) (A) (A) (A) (A) (A) (A) (A) (A) (A) (A)
                 (A) (A) (A) (A) (A) (A) (A) (A) (A) (A) (A) (A)
                 (A) (A) (A) (A) (A) (A) (A) (A) (A) (A) (A) (A)
                 (A) (A) (A) (A) (A) (A) (A) (A) (A) (A) (A) (A)
                 (A) (A) (A) (A) (A) (A) (A) (A) (A)
 The electronic state is 1-A.
 Alpha  occ. eigenvalues -- -482.74501-482.73907-482.73895-101.45115-101.45022
 Alpha  occ. eigenvalues --  -62.42658 -62.42075 -62.42062 -56.25844 -56.25563
 Alpha  occ. eigenvalues --  -56.25552 -56.25270 -56.25258 -56.24976 -56.24964
 Alpha  occ. eigenvalues --  -56.24958 -56.24945 -19.13768 -19.13755 -14.48988
 Alpha  occ. eigenvalues --   -9.40465  -9.40371  -8.64426  -8.63850  -8.63838
 Alpha  occ. eigenvalues --   -7.17273  -7.17178  -7.16423  -7.16417  -7.16329
 Alpha  occ. eigenvalues --   -7.16324  -6.47610  -6.47070  -6.47059  -6.46580
 Alpha  occ. eigenvalues --   -6.46542  -6.45997  -6.45985  -6.45938  -6.45924
 Alpha  occ. eigenvalues --   -4.01895  -2.59066  -2.58782  -2.58751  -2.58519
 Alpha  occ. eigenvalues --   -2.58508  -2.58230  -2.58219  -2.58184  -2.58172
 Alpha  occ. eigenvalues --   -2.57943  -2.57943  -2.57341  -2.57339  -2.57327
 Alpha  occ. eigenvalues --   -2.57325  -2.23630  -2.23038  -2.22842  -1.08583
 Alpha  occ. eigenvalues --   -0.92569  -0.77482  -0.75791  -0.72866  -0.71811
 Alpha  occ. eigenvalues --   -0.71299  -0.64568  -0.49233  -0.46002  -0.45844
 Alpha  occ. eigenvalues --   -0.41584  -0.40410  -0.39818  -0.38819  -0.37840
 Alpha  occ. eigenvalues --   -0.36691  -0.31784  -0.31334  -0.27921  -0.26630
 Alpha  occ. eigenvalues --   -0.26423  -0.26347  -0.25903  -0.25686  -0.25107
 Alpha  occ. eigenvalues --   -0.25056  -0.24594  -0.24489  -0.23572  -0.22776
 Alpha  occ. eigenvalues --   -0.21293
 Alpha virt. eigenvalues --   -0.12504  -0.09025  -0.04688   0.05538   0.05645
 Alpha virt. eigenvalues --    0.06309   0.13768   0.19481   0.19721   0.25129
 Alpha virt. eigenvalues --    0.26298   0.26383   0.35642   0.36392   0.37681
 Alpha virt. eigenvalues --    0.38492   0.43658   0.46878   0.48860   0.51114
 Alpha virt. eigenvalues --    0.54488   0.55020   0.55671   0.55697   0.56286
 Alpha virt. eigenvalues --    0.57594   0.57661   0.59233   0.60313   0.61228
 Alpha virt. eigenvalues --    0.61738   0.63228   0.63821   0.65174   0.67764
 Alpha virt. eigenvalues --    0.68093   0.69854   0.71372   0.72161   0.72751
 Alpha virt. eigenvalues --    0.75457   0.75745   0.79739   0.80327   0.81147
 Alpha virt. eigenvalues --    0.81978   0.83409   0.84556   0.85069   0.90145
 Alpha virt. eigenvalues --    0.92583   0.93774   0.95877   0.98407   0.98649
 Alpha virt. eigenvalues --    0.99270   1.01236   1.03329   1.05908   1.08119
 Alpha virt. eigenvalues --    1.08375   1.11039   1.11532   1.13378   1.20410
 Alpha virt. eigenvalues --    1.21217   1.22791   1.25741   1.29224   1.33344
 Alpha virt. eigenvalues --    1.38916   1.41131   1.44325   1.50485   1.94492
 Alpha virt. eigenvalues --    1.98519   2.04272   2.31289   2.33992   2.65757
 Alpha virt. eigenvalues --    2.67403   2.67665   2.68920   2.76294   2.98227
 Alpha virt. eigenvalues --    3.01716   3.22590   3.43692   3.44658   3.45843
 Alpha virt. eigenvalues --    3.46648   3.47375   3.49421   3.49580   3.50437
 Alpha virt. eigenvalues --    3.54611   3.57361   3.61187   3.63147   3.68949
 Alpha virt. eigenvalues --    3.69272   3.73050   3.73118   3.85483   8.06052
          Condensed to atoms (all electrons):
               1          2          3          4          5          6
     1  Pt  17.436333   0.030611  -0.021614  -0.020502   0.208207   0.196759
     2  N    0.030611   6.671890   0.184923   0.184063  -0.019620  -0.017452
     3  O   -0.021614   0.184923   8.230141  -0.096389  -0.000247   0.000445
     4  O   -0.020502   0.184063  -0.096389   8.232017  -0.000024  -0.023075
     5  Br   0.208207  -0.019620  -0.000247  -0.000024  35.049393  -0.029793
     6  Br   0.196759  -0.017452   0.000445  -0.023075  -0.029793  35.083805
     7  Br   0.195791  -0.017550  -0.020871   0.000443  -0.029819  -0.004635
     8  Cl   0.257382  -0.002799   0.000038   0.000038  -0.026558  -0.021305
     9  Cl   0.231292  -0.016640   0.000121   0.000102  -0.003158  -0.026844
               7          8          9
     1  Pt   0.195791   0.257382   0.231292
     2  N   -0.017550  -0.002799  -0.016640
     3  O   -0.020871   0.000038   0.000121
     4  O    0.000443   0.000038   0.000102
     5  Br  -0.029819  -0.026558  -0.003158
     6  Br  -0.004635  -0.021305  -0.026844
     7  Br  35.083428  -0.021016  -0.026920
     8  Cl  -0.021016  17.061479  -0.015398
     9  Cl  -0.026920  -0.015398  17.095541
 Mulliken charges:
               1
     1  Pt  -0.514261
     2  N    0.002575
     3  O   -0.276547
     4  O   -0.276673
     5  Br  -0.148381
     6  Br  -0.157905
     7  Br  -0.158851
     8  Cl  -0.231861
     9  Cl  -0.238096
 Sum of Mulliken charges =  -2.00000
 Mulliken charges with hydrogens summed into heavy atoms:
               1
     1  Pt  -0.514261
     2  N    0.002575
     3  O   -0.276547
     4  O   -0.276673
     5  Br  -0.148381
     6  Br  -0.157905
     7  Br  -0.158851
     8  Cl  -0.231861
     9  Cl  -0.238096
 Electronic spatial extent (au):  <R**2>=           3648.8530
 Charge=             -2.0000 electrons
 Dipole moment (field-independent basis, Debye):
    X=              0.0217    Y=              0.1326    Z=             -1.1575  Tot=              1.1653
 Quadrupole moment (field-independent basis, Debye-Ang):
   XX=           -150.9258   YY=           -148.4691   ZZ=           -148.2238
   XY=             -0.0295   XZ=              0.0758   YZ=             -5.5012
 Traceless Quadrupole moment (field-independent basis, Debye-Ang):
   XX=             -1.7196   YY=              0.7371   ZZ=              0.9825
   XY=             -0.0295   XZ=              0.0758   YZ=             -5.5012
 Octapole moment (field-independent basis, Debye-Ang**2):
  XXX=              0.2033  YYY=             28.4415  ZZZ=            -17.1552  XYY=             -0.0650
  XXY=              7.9257  XXZ=             -9.2556  XZZ=              0.3464  YZZ=             -4.9604
  YYZ=             -9.4820  XYZ=             -0.0471
 Hexadecapole moment (field-independent basis, Debye-Ang**3):
 XXXX=          -1665.8915 YYYY=          -1349.9227 ZZZZ=          -1142.6125 XXXY=             -0.0037
 XXXZ=              0.6440 YYYX=             -0.2310 YYYZ=            -22.6773 ZZZX=              1.2670
 ZZZY=            -67.4543 XXYY=           -498.0083 XXZZ=           -473.3955 YYZZ=           -420.8564
 XXYZ=            -16.0672 YYXZ=             -0.0518 ZZXY=             -0.0718
 N-N= 2.287652369845D+03 E-N=-2.600814633549D+04  KE= 8.872401566346D+03
   1 Symmetry operations used in ECPInt.
 ECPInt:  NShTT=    3081 NPrTT=   16147 LenC2=    2814 LenP2D=   10179.
 LDataN:  DoStor=T MaxTD1= 7 Len=  274
 D1PCM: PCM CHGder 1st derivatives, ID1Alg=3 FixD1E=F DoIter=F DoCFld=F I1PDM=0.
 Calling FoFJK, ICntrl=      2127 FMM=F ISym2X=0 I1Cent= 0 IOpClX= 0 NMat=1 NMatS=1 NMatT=0.
 Defaulting to unpruned grid for atomic number  78.
 Defaulting to unpruned grid for atomic number  78.
 Defaulting to unpruned grid for atomic number  78.
 Defaulting to unpruned grid for atomic number  78.
 Defaulting to unpruned grid for atomic number  78.
 Defaulting to unpruned grid for atomic number  78.
 Defaulting to unpruned grid for atomic number  78.
 Defaulting to unpruned grid for atomic number  78.
 ***** Axes restored to original set *****
 -------------------------------------------------------------------
 Center     Atomic                   Forces (Hartrees/Bohr)
 Number     Number              X              Y              Z
 -------------------------------------------------------------------
      1       78          -0.011762691   -0.000564802    0.016474396
      2        7           0.099244066    0.003399736   -0.177486274
      3        8          -0.014148538    0.067946405    0.074569986
      4        8          -0.013369528   -0.071035908    0.072774942
      5       35           0.001510668   -0.000031560   -0.034561884
      6       35          -0.011373064    0.039577573    0.003526734
      7       35          -0.010509991   -0.039382699    0.003732969
      8       17          -0.039396062    0.000068493   -0.003254962
      9       17          -0.000194861    0.000022763    0.044224094
 -------------------------------------------------------------------
 Cartesian Forces:  Max     0.177486274 RMS     0.051196733

 GradGradGradGradGradGradGradGradGradGradGradGradGradGradGradGradGradGrad
 Berny optimization.
 FormGI is forming the generalized inverse of G from B-inverse, IUseBI=4.
 Internal  Forces:  Max     0.096226971 RMS     0.032931227
 Search for a local minimum.
 Step number   1 out of a maximum of   47
 All quantities printed in internal units (Hartrees-Bohrs-Radians)
 Mixed Optimization -- RFO/linear search
 Second derivative matrix not updated -- first step.
 ITU=  0
     Eigenvalues ---    0.00230   0.04734   0.08487   0.08487   0.12615
     Eigenvalues ---    0.12615   0.12615   0.12615   0.16743   0.19509
     Eigenvalues ---    0.19509   0.19509   0.20378   0.22001   0.22001
     Eigenvalues ---    0.25000   0.25000   0.25000   0.25000   0.52948
     Eigenvalues ---    0.52948
 RFO step:  Lambda=-1.10276876D-01 EMin= 2.30000000D-03
 Linear search not attempted -- first point.
 Maximum step size (   0.300) exceeded in Quadratic search.
    -- Step size scaled by   0.591
 Iteration  1 RMS(Cart)=  0.08790943 RMS(Int)=  0.00493474
 Iteration  2 RMS(Cart)=  0.00459295 RMS(Int)=  0.00283606
 Iteration  3 RMS(Cart)=  0.00004010 RMS(Int)=  0.00283590
 Iteration  4 RMS(Cart)=  0.00000045 RMS(Int)=  0.00283590
 Variable       Old X    -DE/DX   Delta X   Delta X   Delta X     New X
                                 (Linear)    (Quad)   (Total)
    R1        3.76056   0.07171   0.00000   0.13489   0.13489   3.89544
    R2        4.59203   0.03455   0.00000   0.06684   0.06684   4.65888
    R3        4.59203   0.03959   0.00000   0.07659   0.07659   4.66862
    R4        4.59203   0.03937   0.00000   0.07617   0.07617   4.66820
    R5        4.30858   0.03939   0.00000   0.07046   0.07046   4.37903
    R6        4.30858   0.04424   0.00000   0.07912   0.07912   4.38770
    R7        2.57003  -0.09587   0.00000  -0.08853  -0.08853   2.48150
    R8        2.57003  -0.09623   0.00000  -0.08886  -0.08886   2.48117
    A1        1.57080  -0.00694   0.00000  -0.01577  -0.01575   1.55505
    A2        1.57080   0.01376   0.00000   0.03361   0.03365   1.60445
    A3        1.57080   0.01136   0.00000   0.02914   0.02919   1.59999
    A4        1.57080   0.00541   0.00000   0.01196   0.01194   1.58274
    A5        1.57080   0.00272   0.00000   0.00830   0.00866   1.57945
    A6        1.57080   0.00285   0.00000   0.00858   0.00891   1.57970
    A7        1.57080  -0.00176   0.00000  -0.00597  -0.00598   1.56482
    A8        1.57080  -0.01313   0.00000  -0.03205  -0.03191   1.53889
    A9        1.57080  -0.00273   0.00000  -0.00832  -0.00855   1.56224
   A10        1.57080  -0.01198   0.00000  -0.03070  -0.03056   1.54024
   A11        1.57080  -0.00284   0.00000  -0.00856  -0.00878   1.56202
   A12        1.57080   0.00329   0.00000   0.00978   0.00978   1.58058
   A13        1.91063   0.04272   0.00000   0.09293   0.08513   1.99576
   A14        1.91063   0.04529   0.00000   0.09713   0.08935   1.99998
   A15        1.91063  -0.01147   0.00000   0.02694   0.01502   1.92566
   A16        3.14159  -0.00870   0.00000  -0.02174  -0.02173   3.11986
   A17        3.14159  -0.00152   0.00000  -0.00381  -0.00381   3.13778
   A18        3.14159   0.02511   0.00000   0.06275   0.06284   3.20443
   A19        3.14159  -0.00062   0.00000  -0.00156  -0.00156   3.14003
   A20        3.14159  -0.00001   0.00000  -0.00002  -0.00002   3.14157
   A21        3.14159  -0.00557   0.00000  -0.01687  -0.01659   3.12501
    D1       -1.02706  -0.01974   0.00000  -0.07359  -0.07565  -1.10271
    D2        1.06734   0.02012   0.00000   0.07579   0.07783   1.14516
    D3       -2.59786  -0.02246   0.00000  -0.08189  -0.08378  -2.68164
    D4       -0.50346   0.01739   0.00000   0.06749   0.06969  -0.43377
    D5        0.54374  -0.01689   0.00000  -0.06501  -0.06720   0.47654
    D6        2.63813   0.02297   0.00000   0.08436   0.08628   2.72441
    D7        2.11453  -0.01973   0.00000  -0.07357  -0.07563   2.03890
    D8       -2.07426   0.02012   0.00000   0.07581   0.07785  -1.99641
         Item               Value     Threshold  Converged?
 Maximum Force            0.096227     0.000450     NO 
 RMS     Force            0.032931     0.000300     NO 
 Maximum Displacement     0.244682     0.001800     NO 
 RMS     Displacement     0.085974     0.001200     NO 
 Predicted change in Energy=-5.350991D-02
 GradGradGradGradGradGradGradGradGradGradGradGradGradGradGradGradGradGrad

                          Input orientation:                          
 ---------------------------------------------------------------------
 Center     Atomic      Atomic             Coordinates (Angstroms)
 Number     Number       Type             X           Y           Z
 ---------------------------------------------------------------------
      1         78           0       -0.339243    0.339662   -0.011645
      2          7           0        1.721235    0.338771   -0.072570
      3          8           0        2.245979   -0.729121   -0.628104
      4          8           0        2.253264    1.425918   -0.581461
      5         35           0       -0.373285    0.339679   -2.476781
      6         35           0       -0.420670    2.808746    0.010887
      7         35           0       -0.411757   -2.129472    0.011348
      8         17           0       -2.656456    0.337054    0.006503
      9         17           0       -0.298342    0.339694    2.309864
 ---------------------------------------------------------------------
                    Distance matrix (angstroms):
                    1          2          3          4          5
     1  Pt   0.000000
     2  N    2.061379   0.000000
     3  O    2.864558   1.313152   0.000000
     4  O    2.868054   1.312978   2.155555   0.000000
     5  Br   2.465371   3.188612   3.379420   3.416271   0.000000
     6  Br   2.470529   3.270398   4.476140   3.068064   3.505286
     7  Br   2.470306   3.263269   3.071391   4.482695   3.505563
     8  Cl   2.317285   4.378405   5.057007   5.063267   3.373362
     9  Cl   2.321869   3.123249   4.030830   4.006287   4.787231
                    6          7          8          9
     6  Br   0.000000
     7  Br   4.938227   0.000000
     8  Cl   3.332870   3.335033   0.000000
     9  Cl   3.375867   3.375326   3.296389   0.000000
 Stoichiometry    Br3Cl2NO2Pt(2-)
 Framework group  C1[X(Br3Cl2NO2Pt)]
 Deg. of freedom    21
 Full point group                 C1      NOp   1
 Largest Abelian subgroup         C1      NOp   1
 Largest concise Abelian subgroup C1      NOp   1
                         Standard orientation:                         
 ---------------------------------------------------------------------
 Center     Atomic      Atomic             Coordinates (Angstroms)
 Number     Number       Type             X           Y           Z
 ---------------------------------------------------------------------
      1         78           0       -0.000196   -0.232182    0.014897
      2          7           0        0.003696    0.345509    1.993670
      3          8           0        1.073538    1.012603    2.360808
      4          8           0       -1.081585    0.974647    2.381307
      5         35           0        0.005172    2.144978   -0.638659
      6         35           0       -2.469434   -0.268357   -0.056280
      7         35           0        2.468779   -0.278820   -0.051447
      8         17           0       -0.000851   -0.833116   -2.223113
      9         17           0       -0.005286   -2.468615    0.638933
 ---------------------------------------------------------------------
 Rotational constants (GHZ):      0.4547843      0.3476033      0.3051530
 Basis read from rwf:  (5D, 7F)
 Pseudo-potential data read from rwf file.
 There are   212 symmetry adapted cartesian basis functions of A   symmetry.
 There are   196 symmetry adapted basis functions of A   symmetry.
   196 basis functions,   432 primitive gaussians,   212 cartesian basis functions
    91 alpha electrons       91 beta electrons
       nuclear repulsion energy      2241.9125637370 Hartrees.
 NAtoms=    9 NActive=    9 NUniq=    9 SFac= 1.00D+00 NAtFMM=   60 NAOKFM=F Big=F
 Integral buffers will be    131072 words long.
 Raffenetti 2 integral format.
 Two-electron integral symmetry is turned on.
 ------------------------------------------------------------------------------
 Polarizable Continuum Model (PCM)
 =================================
 Model                : PCM (using non-symmetric T matrix).
 Atomic radii         : UFF (Universal Force Field).
 Polarization charges : Total charges.
 Charge compensation  : None.
 Solution method      : On-the-fly selection.
 Cavity type          : Scaled VdW (van der Waals Surface) (Alpha=1.100).
 Cavity algorithm     : GePol (No added spheres)
                        Default sphere list used, NSphG=    9.
                        Lebedev-Laikov grids with approx.  5.0 points / Ang**2.
                        Smoothing algorithm: Karplus/York (Gamma=1.0000).
                        Polarization charges: spherical gaussians, with
                                              point-specific exponents (IZeta= 3).
                        Self-potential: point-specific (ISelfS= 7).
                        Self-field    : sphere-specific E.n sum rule (ISelfD= 2).
 1st derivatives      : Analytical E(r).r(x)/FMM algorithm (CHGder, D1EAlg=3).
                        Cavity 1st derivative terms included.
 Solvent              : Water, Eps=  78.355300 Eps(inf)=   1.777849
 ------------------------------------------------------------------------------
 Spheres list:
 ISph  on   Nord     Re0    Alpha      Xe            Ye            Ze
    1  Pt      1    1.3770  1.100     -0.000196     -0.232182      0.014897
    2   N      2    1.8300  1.100      0.003696      0.345509      1.993670
    3   O      3    1.7500  1.100      1.073538      1.012603      2.360808
    4   O      4    1.7500  1.100     -1.081585      0.974647      2.381307
    5  Br      5    2.0945  1.100      0.005172      2.144978     -0.638659
    6  Br      6    2.0945  1.100     -2.469434     -0.268357     -0.056280
    7  Br      7    2.0945  1.100      2.468779     -0.278820     -0.051447
    8  Cl      8    1.9735  1.100     -0.000851     -0.833116     -2.223113
    9  Cl      9    1.9735  1.100     -0.005286     -2.468615      0.638933
 ------------------------------------------------------------------------------
 One-electron integrals computed using PRISM.
   1 Symmetry operations used in ECPInt.
 ECPInt:  NShTT=    3081 NPrTT=   16147 LenC2=    2809 LenP2D=   10099.
 LDataN:  DoStor=T MaxTD1= 6 Len=  172
 NBasis=   196 RedAO= T EigKep=  5.18D-03  NBF=   196
 NBsUse=   196 1.00D-06 EigRej= -1.00D+00 NBFU=   196
 Defaulting to unpruned grid for atomic number  78.
 Initial guess from the checkpoint file:  "/home/scr/diego/Gau-16044.chk"
 B after Tr=     0.000000    0.000000    0.000000
         Rot=    0.999998    0.001545   -0.001174    0.000508 Ang=   0.23 deg.
 ExpMin= 2.90D-02 ExpMax= 1.13D+05 ExpMxC= 1.70D+04 IAcc=3 IRadAn=         5 AccDes= 0.00D+00
 Harris functional with IExCor=  402 and IRadAn=       5 diagonalized for initial guess.
 HarFok:  IExCor=  402 AccDes= 0.00D+00 IRadAn=         5 IDoV= 1 UseB2=F ITyADJ=14
 ICtDFT=  3500011 ScaDFX=  1.000000  1.000000  1.000000  1.000000
 Defaulting to unpruned grid for atomic number  78.
 Defaulting to unpruned grid for atomic number  78.
 Defaulting to unpruned grid for atomic number  78.
 Defaulting to unpruned grid for atomic number  78.
 Defaulting to unpruned grid for atomic number  78.
 Defaulting to unpruned grid for atomic number  78.
 Defaulting to unpruned grid for atomic number  78.
 Defaulting to unpruned grid for atomic number  78.
 FoFCou: FMM=F IPFlag=           0 FMFlag=      100000 FMFlg1=           0
         NFxFlg=           0 DoJE=T BraDBF=F KetDBF=T FulRan=T
         wScrn=  0.000000 ICntrl=     500 IOpCl=  0 I1Cent=   200000004 NGrid=           0
         NMat0=    1 NMatS0=      1 NMatT0=    0 NMatD0=    1 NMtDS0=    0 NMtDT0=    0
 Petite list used in FoFCou.
 Keep R1 ints in memory in canonical form, NReq=192301623.
 Requested convergence on RMS density matrix=1.00D-08 within 128 cycles.
 Requested convergence on MAX density matrix=1.00D-06.
 Requested convergence on             energy=1.00D-06.
 No special actions if energy rises.
 Defaulting to unpruned grid for atomic number  78.
 Defaulting to unpruned grid for atomic number  78.
 Defaulting to unpruned grid for atomic number  78.
 Defaulting to unpruned grid for atomic number  78.
 Defaulting to unpruned grid for atomic number  78.
 Defaulting to unpruned grid for atomic number  78.
 Defaulting to unpruned grid for atomic number  78.
 Defaulting to unpruned grid for atomic number  78.
 Inv3:  Mode=1 IEnd=     7124043.
 Iteration    1 A*A^-1 deviation from unit magnitude is 6.66D-15 for    365.
 Iteration    1 A*A^-1 deviation from orthogonality  is 5.03D-15 for   1085    662.
 Iteration    1 A^-1*A deviation from unit magnitude is 6.44D-15 for    803.
 Iteration    1 A^-1*A deviation from orthogonality  is 9.81D-15 for   1472   1381.
 Error on total polarization charges =  0.01592
 SCF Done:  E(RB3LYP) =  -8966.28300858     A.U. after   14 cycles
            NFock= 14  Conv=0.46D-08     -V/T= 2.0106
   1 Symmetry operations used in ECPInt.
 ECPInt:  NShTT=    3081 NPrTT=   16147 LenC2=    2809 LenP2D=   10099.
 LDataN:  DoStor=T MaxTD1= 7 Len=  274
 D1PCM: PCM CHGder 1st derivatives, ID1Alg=3 FixD1E=F DoIter=F DoCFld=F I1PDM=0.
 Calling FoFJK, ICntrl=      2127 FMM=F ISym2X=0 I1Cent= 0 IOpClX= 0 NMat=1 NMatS=1 NMatT=0.
 Defaulting to unpruned grid for atomic number  78.
 Defaulting to unpruned grid for atomic number  78.
 Defaulting to unpruned grid for atomic number  78.
 Defaulting to unpruned grid for atomic number  78.
 Defaulting to unpruned grid for atomic number  78.
 Defaulting to unpruned grid for atomic number  78.
 Defaulting to unpruned grid for atomic number  78.
 Defaulting to unpruned grid for atomic number  78.
 ***** Axes restored to original set *****
 -------------------------------------------------------------------
 Center     Atomic                   Forces (Hartrees/Bohr)
 Number     Number              X              Y              Z
 -------------------------------------------------------------------
      1       78           0.001694945   -0.000463014    0.013563333
      2        7           0.087523839    0.002748484   -0.146549986
      3        8          -0.029440200    0.042861499    0.063791905
      4        8          -0.029850551   -0.045298496    0.062165596
      5       35           0.000784327    0.000101729   -0.022423476
      6       35          -0.003026156    0.023757207    0.001292545
      7       35          -0.002942074   -0.023755258    0.001370469
      8       17          -0.025939503    0.000006093   -0.001608328
      9       17           0.001195373    0.000041758    0.028397941
 -------------------------------------------------------------------
 Cartesian Forces:  Max     0.146549986 RMS     0.041298181

 GradGradGradGradGradGradGradGradGradGradGradGradGradGradGradGradGradGrad
 Berny optimization.
 Using GEDIIS/GDIIS optimizer.
 FormGI is forming the generalized inverse of G from B-inverse, IUseBI=4.
 Internal  Forces:  Max     0.073704920 RMS     0.022009646
 Search for a local minimum.
 Step number   2 out of a maximum of   47
 All quantities printed in internal units (Hartrees-Bohrs-Radians)
 Mixed Optimization -- RFO/linear search
 Update second derivatives using D2CorX and points    1    2
 DE= -5.23D-02 DEPred=-5.35D-02 R= 9.77D-01
 TightC=F SS=  1.41D+00  RLast= 3.66D-01 DXNew= 5.0454D-01 1.0966D+00
 Trust test= 9.77D-01 RLast= 3.66D-01 DXMaxT set to 5.05D-01
 ITU=  1  0
 Use linear search instead of GDIIS.
 Linear search step of   0.506 exceeds DXMaxT=   0.505 but not scaled.
 Quartic linear search produced a step of  1.71936.
 Iteration  1 RMS(Cart)=  0.12945022 RMS(Int)=  0.01685816
 Iteration  2 RMS(Cart)=  0.01122436 RMS(Int)=  0.01105501
 Iteration  3 RMS(Cart)=  0.00023379 RMS(Int)=  0.01105283
 Iteration  4 RMS(Cart)=  0.00000587 RMS(Int)=  0.01105283
 Iteration  5 RMS(Cart)=  0.00000015 RMS(Int)=  0.01105283
 Variable       Old X    -DE/DX   Delta X   Delta X   Delta X     New X
                                 (Linear)    (Quad)   (Total)
    R1        3.89544   0.02884   0.23192   0.00000   0.23192   4.12736
    R2        4.65888   0.02242   0.11492   0.00000   0.11492   4.77380
    R3        4.66862   0.02386   0.13168   0.00000   0.13168   4.80031
    R4        4.66820   0.02384   0.13096   0.00000   0.13096   4.79916
    R5        4.37903   0.02593   0.12114   0.00000   0.12114   4.50018
    R6        4.38770   0.02841   0.13604   0.00000   0.13604   4.52374
    R7        2.48150  -0.07362  -0.15221   0.00000  -0.15221   2.32928
    R8        2.48117  -0.07370  -0.15278   0.00000  -0.15278   2.32839
    A1        1.55505  -0.00391  -0.02708   0.00000  -0.02690   1.52815
    A2        1.60445   0.00263   0.05786   0.00000   0.05806   1.66251
    A3        1.59999   0.00270   0.05019   0.00000   0.05040   1.65039
    A4        1.58274   0.00187   0.02053   0.00000   0.02037   1.60311
    A5        1.57945   0.00083   0.01489   0.00000   0.01651   1.59596
    A6        1.57970   0.00104   0.01532   0.00000   0.01682   1.59653
    A7        1.56482  -0.00074  -0.01028   0.00000  -0.01033   1.55449
    A8        1.53889  -0.00264  -0.05486   0.00000  -0.05415   1.48474
    A9        1.56224  -0.00086  -0.01470   0.00000  -0.01575   1.54649
   A10        1.54024  -0.00257  -0.05254   0.00000  -0.05181   1.48843
   A11        1.56202  -0.00086  -0.01509   0.00000  -0.01607   1.54595
   A12        1.58058   0.00278   0.01682   0.00000   0.01686   1.59744
   A13        1.99576   0.00744   0.14636   0.00000   0.11057   2.10633
   A14        1.99998   0.00738   0.15362   0.00000   0.11792   2.11790
   A15        1.92566   0.01540   0.02583   0.00000  -0.01626   1.90939
   A16        3.11986  -0.00465  -0.03736   0.00000  -0.03723   3.08264
   A17        3.13778  -0.00204  -0.00655   0.00000  -0.00652   3.13126
   A18        3.20443   0.00533   0.10805   0.00000   0.10846   3.31290
   A19        3.14003   0.00007  -0.00268   0.00000  -0.00268   3.13735
   A20        3.14157  -0.00011  -0.00004   0.00000  -0.00005   3.14152
   A21        3.12501  -0.00155  -0.02852   0.00000  -0.02721   3.09779
    D1       -1.10271  -0.01825  -0.13007   0.00000  -0.13489  -1.23760
    D2        1.14516   0.01819   0.13381   0.00000   0.13852   1.28368
    D3       -2.68164  -0.01891  -0.14405   0.00000  -0.14812  -2.82976
    D4       -0.43377   0.01753   0.11983   0.00000   0.12529  -0.30848
    D5        0.47654  -0.01736  -0.11554   0.00000  -0.12091   0.35563
    D6        2.72441   0.01908   0.14835   0.00000   0.15250   2.87691
    D7        2.03890  -0.01814  -0.13003   0.00000  -0.13483   1.90407
    D8       -1.99641   0.01830   0.13385   0.00000   0.13857  -1.85783
         Item               Value     Threshold  Converged?
 Maximum Force            0.073705     0.000450     NO 
 RMS     Force            0.022010     0.000300     NO 
 Maximum Displacement     0.345541     0.001800     NO 
 RMS     Displacement     0.132595     0.001200     NO 
 Predicted change in Energy=-3.291837D-02
 GradGradGradGradGradGradGradGradGradGradGradGradGradGradGradGradGradGrad

                          Input orientation:                          
 ---------------------------------------------------------------------
 Center     Atomic      Atomic             Coordinates (Angstroms)
 Number     Number       Type             X           Y           Z
 ---------------------------------------------------------------------
      1         78           0       -0.360869    0.342369   -0.028943
      2          7           0        1.817401    0.339750   -0.188462
      3          8           0        2.418190   -0.662702   -0.580193
      4          8           0        2.436117    1.348217   -0.532456
      5         35           0       -0.437789    0.342495   -2.553957
      6         35           0       -0.585910    2.871600    0.041989
      7         35           0       -0.561140   -2.188323    0.042400
      8         17           0       -2.742012    0.335131    0.004738
      9         17           0       -0.263261    0.342396    2.362924
 ---------------------------------------------------------------------
                    Distance matrix (angstroms):
                    1          2          3          4          5
     1  Pt   0.000000
     2  N    2.184105   0.000000
     3  O    3.006196   1.232604   0.000000
     4  O    3.014695   1.232131   2.011566   0.000000
     5  Br   2.526185   3.268249   3.614247   3.654761   0.000000
     6  Br   2.540214   3.498467   4.680066   3.432685   3.627292
     7  Br   2.539606   3.478780   3.404637   4.671309   3.627854
     8  Cl   2.381392   4.563507   5.288242   5.303578   3.443315
     9  Cl   2.393858   3.292223   4.106379   4.084304   4.919978
                    6          7          8          9
     6  Br   0.000000
     7  Br   5.059983   0.000000
     8  Cl   3.329239   3.335482   0.000000
     9  Cl   3.447856   3.446462   3.421301   0.000000
 Stoichiometry    Br3Cl2NO2Pt(2-)
 Framework group  C1[X(Br3Cl2NO2Pt)]
 Deg. of freedom    21
 Full point group                 C1      NOp   1
 Largest Abelian subgroup         C1      NOp   1
 Largest concise Abelian subgroup C1      NOp   1
                         Standard orientation:                         
 ---------------------------------------------------------------------
 Center     Atomic      Atomic             Coordinates (Angstroms)
 Number     Number       Type             X           Y           Z
 ---------------------------------------------------------------------
      1         78           0       -0.001512   -0.211610    0.043134
      2          7           0        0.020691    0.518561    2.101452
      3          8           0        1.029518    1.050136    2.569434
      4          8           0       -0.981298    1.019181    2.614818
      5         35           0        0.005067    2.203027   -0.699224
      6         35           0       -2.532817   -0.326555   -0.135656
      7         35           0        2.527105   -0.346410   -0.150574
      8         17           0       -0.015272   -0.874159   -2.244193
      9         17           0       -0.007674   -2.492373    0.770209
 ---------------------------------------------------------------------
 Rotational constants (GHZ):      0.4186014      0.3245072      0.2912490
 Basis read from rwf:  (5D, 7F)
 Pseudo-potential data read from rwf file.
 There are   212 symmetry adapted cartesian basis functions of A   symmetry.
 There are   196 symmetry adapted basis functions of A   symmetry.
   196 basis functions,   432 primitive gaussians,   212 cartesian basis functions
    91 alpha electrons       91 beta electrons
       nuclear repulsion energy      2174.3517746598 Hartrees.
 NAtoms=    9 NActive=    9 NUniq=    9 SFac= 1.00D+00 NAtFMM=   60 NAOKFM=F Big=F
 Integral buffers will be    131072 words long.
 Raffenetti 2 integral format.
 Two-electron integral symmetry is turned on.
 ------------------------------------------------------------------------------
 Polarizable Continuum Model (PCM)
 =================================
 Model                : PCM (using non-symmetric T matrix).
 Atomic radii         : UFF (Universal Force Field).
 Polarization charges : Total charges.
 Charge compensation  : None.
 Solution method      : On-the-fly selection.
 Cavity type          : Scaled VdW (van der Waals Surface) (Alpha=1.100).
 Cavity algorithm     : GePol (No added spheres)
                        Default sphere list used, NSphG=    9.
                        Lebedev-Laikov grids with approx.  5.0 points / Ang**2.
                        Smoothing algorithm: Karplus/York (Gamma=1.0000).
                        Polarization charges: spherical gaussians, with
                                              point-specific exponents (IZeta= 3).
                        Self-potential: point-specific (ISelfS= 7).
                        Self-field    : sphere-specific E.n sum rule (ISelfD= 2).
 1st derivatives      : Analytical E(r).r(x)/FMM algorithm (CHGder, D1EAlg=3).
                        Cavity 1st derivative terms included.
 Solvent              : Water, Eps=  78.355300 Eps(inf)=   1.777849
 ------------------------------------------------------------------------------
 Spheres list:
 ISph  on   Nord     Re0    Alpha      Xe            Ye            Ze
    1  Pt      1    1.3770  1.100     -0.001512     -0.211610      0.043134
    2   N      2    1.8300  1.100      0.020691      0.518561      2.101452
    3   O      3    1.7500  1.100      1.029518      1.050136      2.569434
    4   O      4    1.7500  1.100     -0.981298      1.019181      2.614818
    5  Br      5    2.0945  1.100      0.005067      2.203027     -0.699224
    6  Br      6    2.0945  1.100     -2.532817     -0.326555     -0.135656
    7  Br      7    2.0945  1.100      2.527105     -0.346410     -0.150574
    8  Cl      8    1.9735  1.100     -0.015272     -0.874159     -2.244193
    9  Cl      9    1.9735  1.100     -0.007674     -2.492373      0.770209
 ------------------------------------------------------------------------------
 One-electron integrals computed using PRISM.
   1 Symmetry operations used in ECPInt.
 ECPInt:  NShTT=    3081 NPrTT=   16147 LenC2=    2780 LenP2D=    9929.
 LDataN:  DoStor=T MaxTD1= 6 Len=  172
 NBasis=   196 RedAO= T EigKep=  5.89D-03  NBF=   196
 NBsUse=   196 1.00D-06 EigRej= -1.00D+00 NBFU=   196
 Defaulting to unpruned grid for atomic number  78.
 Initial guess from the checkpoint file:  "/home/scr/diego/Gau-16044.chk"
 B after Tr=     0.000000    0.000000    0.000000
         Rot=    0.999962    0.008231   -0.002754    0.001091 Ang=   1.00 deg.
 ExpMin= 2.90D-02 ExpMax= 1.13D+05 ExpMxC= 1.70D+04 IAcc=3 IRadAn=         5 AccDes= 0.00D+00
 Harris functional with IExCor=  402 and IRadAn=       5 diagonalized for initial guess.
 HarFok:  IExCor=  402 AccDes= 0.00D+00 IRadAn=         5 IDoV= 1 UseB2=F ITyADJ=14
 ICtDFT=  3500011 ScaDFX=  1.000000  1.000000  1.000000  1.000000
 Defaulting to unpruned grid for atomic number  78.
 Defaulting to unpruned grid for atomic number  78.
 Defaulting to unpruned grid for atomic number  78.
 Defaulting to unpruned grid for atomic number  78.
 Defaulting to unpruned grid for atomic number  78.
 Defaulting to unpruned grid for atomic number  78.
 Defaulting to unpruned grid for atomic number  78.
 Defaulting to unpruned grid for atomic number  78.
 FoFCou: FMM=F IPFlag=           0 FMFlag=      100000 FMFlg1=           0
         NFxFlg=           0 DoJE=T BraDBF=F KetDBF=T FulRan=T
         wScrn=  0.000000 ICntrl=     500 IOpCl=  0 I1Cent=   200000004 NGrid=           0
         NMat0=    1 NMatS0=      1 NMatT0=    0 NMatD0=    1 NMtDS0=    0 NMtDT0=    0
 Petite list used in FoFCou.
 Keep R1 ints in memory in canonical form, NReq=192568711.
 Requested convergence on RMS density matrix=1.00D-08 within 128 cycles.
 Requested convergence on MAX density matrix=1.00D-06.
 Requested convergence on             energy=1.00D-06.
 No special actions if energy rises.
 Defaulting to unpruned grid for atomic number  78.
 Defaulting to unpruned grid for atomic number  78.
 Defaulting to unpruned grid for atomic number  78.
 Defaulting to unpruned grid for atomic number  78.
 Defaulting to unpruned grid for atomic number  78.
 Defaulting to unpruned grid for atomic number  78.
 Defaulting to unpruned grid for atomic number  78.
 Defaulting to unpruned grid for atomic number  78.
 Inv3:  Mode=1 IEnd=     7902387.
 Iteration    1 A*A^-1 deviation from unit magnitude is 6.88D-15 for   1062.
 Iteration    1 A*A^-1 deviation from orthogonality  is 4.63D-15 for    872    254.
 Iteration    1 A^-1*A deviation from unit magnitude is 6.66D-15 for   1062.
 Iteration    1 A^-1*A deviation from orthogonality  is 3.16D-14 for    380    344.
 Error on total polarization charges =  0.01520
 SCF Done:  E(RB3LYP) =  -8966.31679450     A.U. after   15 cycles
            NFock= 15  Conv=0.62D-08     -V/T= 2.0106
   1 Symmetry operations used in ECPInt.
 ECPInt:  NShTT=    3081 NPrTT=   16147 LenC2=    2780 LenP2D=    9929.
 LDataN:  DoStor=T MaxTD1= 7 Len=  274
 D1PCM: PCM CHGder 1st derivatives, ID1Alg=3 FixD1E=F DoIter=F DoCFld=F I1PDM=0.
 Calling FoFJK, ICntrl=      2127 FMM=F ISym2X=0 I1Cent= 0 IOpClX= 0 NMat=1 NMatS=1 NMatT=0.
 Defaulting to unpruned grid for atomic number  78.
 Defaulting to unpruned grid for atomic number  78.
 Defaulting to unpruned grid for atomic number  78.
 Defaulting to unpruned grid for atomic number  78.
 Defaulting to unpruned grid for atomic number  78.
 Defaulting to unpruned grid for atomic number  78.
 Defaulting to unpruned grid for atomic number  78.
 Defaulting to unpruned grid for atomic number  78.
 ***** Axes restored to original set *****
 -------------------------------------------------------------------
 Center     Atomic                   Forces (Hartrees/Bohr)
 Number     Number              X              Y              Z
 -------------------------------------------------------------------
      1       78           0.006926407   -0.000414635    0.008670632
      2        7           0.048989585    0.000542656   -0.075455540
      3        8          -0.030432486   -0.047444865    0.032783738
      4        8          -0.029902910    0.047397260    0.034937536
      5       35           0.001482015    0.000074152   -0.005339884
      6       35           0.005380051    0.006754243   -0.001444542
      7       35           0.005018063   -0.006893592   -0.001481413
      8       17          -0.009577584   -0.000066360    0.000362357
      9       17           0.002116860    0.000051140    0.006967118
 -------------------------------------------------------------------
 Cartesian Forces:  Max     0.075455540 RMS     0.025208417

 GradGradGradGradGradGradGradGradGradGradGradGradGradGradGradGradGradGrad
 Berny optimization.
 Using GEDIIS/GDIIS optimizer.
 FormGI is forming the generalized inverse of G from B-inverse, IUseBI=4.
 Internal  Forces:  Max     0.079738244 RMS     0.018099681
 Search for a local minimum.
 Step number   3 out of a maximum of   47
 All quantities printed in internal units (Hartrees-Bohrs-Radians)
 Mixed Optimization -- RFO/linear search
 Update second derivatives using D2CorX and points    2    3
 ITU=  0  1  0
 Use linear search instead of GDIIS.
     Eigenvalues ---    0.00230   0.01411   0.08334   0.08432   0.12262
     Eigenvalues ---    0.12582   0.12702   0.12872   0.14688   0.16728
     Eigenvalues ---    0.19509   0.19511   0.19944   0.21525   0.22003
     Eigenvalues ---    0.24992   0.25000   0.25000   0.32681   0.52947
     Eigenvalues ---    0.60080
 RFO step:  Lambda=-5.33507708D-02 EMin= 2.30001821D-03
 Quartic linear search produced a step of -0.02007.
 Iteration  1 RMS(Cart)=  0.08147587 RMS(Int)=  0.02032608
 Iteration  2 RMS(Cart)=  0.01881834 RMS(Int)=  0.00452361
 Iteration  3 RMS(Cart)=  0.00040322 RMS(Int)=  0.00450654
 Iteration  4 RMS(Cart)=  0.00000047 RMS(Int)=  0.00450654
 Variable       Old X    -DE/DX   Delta X   Delta X   Delta X     New X
                                 (Linear)    (Quad)   (Total)
    R1        4.12736  -0.01075  -0.00465  -0.01169  -0.01634   4.11102
    R2        4.77380   0.00530  -0.00231   0.03621   0.03391   4.80771
    R3        4.80031   0.00622  -0.00264   0.04025   0.03760   4.83791
    R4        4.79916   0.00642  -0.00263   0.04092   0.03829   4.83745
    R5        4.50018   0.00958  -0.00243   0.04847   0.04604   4.54622
    R6        4.52374   0.00704  -0.00273   0.04282   0.04009   4.56382
    R7        2.32928   0.01335   0.00305  -0.00972  -0.00667   2.32261
    R8        2.32839   0.01400   0.00307  -0.00885  -0.00578   2.32261
    A1        1.52815  -0.00180   0.00054  -0.01237  -0.01184   1.51631
    A2        1.66251  -0.00790  -0.00117  -0.03244  -0.03361   1.62890
    A3        1.65039  -0.00614  -0.00101  -0.02643  -0.02744   1.62294
    A4        1.60311  -0.00222  -0.00041  -0.00818  -0.00859   1.59452
    A5        1.59596  -0.00115  -0.00033  -0.00562  -0.00635   1.58961
    A6        1.59653  -0.00105  -0.00034  -0.00481  -0.00550   1.59102
    A7        1.55449   0.00235   0.00021   0.00984   0.01005   1.56454
    A8        1.48474   0.00722   0.00109   0.02932   0.03038   1.51512
    A9        1.54649   0.00131   0.00032   0.00627   0.00632   1.55281
   A10        1.48843   0.00666   0.00104   0.02899   0.03001   1.51843
   A11        1.54595   0.00142   0.00032   0.00705   0.00714   1.55309
   A12        1.59744   0.00167  -0.00034   0.01072   0.01038   1.60782
   A13        2.10633  -0.03921  -0.00222  -0.04876  -0.06666   2.03967
   A14        2.11790  -0.04061  -0.00237  -0.05277  -0.07081   2.04710
   A15        1.90939   0.07974   0.00033   0.28673   0.27107   2.18046
   A16        3.08264   0.00055   0.00075  -0.00253  -0.00179   3.08085
   A17        3.13126  -0.00402   0.00013  -0.02055  -0.02043   3.11083
   A18        3.31290  -0.01405  -0.00218  -0.05887  -0.06105   3.25184
   A19        3.13735   0.00059   0.00005   0.00282   0.00287   3.14022
   A20        3.14152  -0.00012   0.00000  -0.00089  -0.00087   3.14065
   A21        3.09779   0.00194   0.00055   0.01018   0.01067   3.10846
    D1       -1.23760  -0.01325   0.00271  -0.22173  -0.21971  -1.45731
    D2        1.28368   0.01317  -0.00278   0.22128   0.21921   1.50290
    D3       -2.82976  -0.01225   0.00297  -0.21628  -0.21404  -3.04380
    D4       -0.30848   0.01417  -0.00251   0.22673   0.22488  -0.08360
    D5        0.35563  -0.01419   0.00243  -0.22646  -0.22470   0.13093
    D6        2.87691   0.01223  -0.00306   0.21655   0.21422   3.09113
    D7        1.90407  -0.01313   0.00271  -0.22084  -0.21884   1.68523
    D8       -1.85783   0.01329  -0.00278   0.22217   0.22008  -1.63775
         Item               Value     Threshold  Converged?
 Maximum Force            0.079738     0.000450     NO 
 RMS     Force            0.018100     0.000300     NO 
 Maximum Displacement     0.230474     0.001800     NO 
 RMS     Displacement     0.096301     0.001200     NO 
 Predicted change in Energy=-4.042239D-02
 GradGradGradGradGradGradGradGradGradGradGradGradGradGradGradGradGradGrad

                          Input orientation:                          
 ---------------------------------------------------------------------
 Center     Atomic      Atomic             Coordinates (Angstroms)
 Number     Number       Type             X           Y           Z
 ---------------------------------------------------------------------
      1         78           0       -0.361928    0.340910   -0.059682
      2          7           0        1.802323    0.342522   -0.280204
      3          8           0        2.343026   -0.746388   -0.460591
      4          8           0        2.354675    1.432727   -0.410494
      5         35           0       -0.481594    0.342136   -2.600994
      6         35           0       -0.507536    2.896259   -0.003382
      7         35           0       -0.488382   -2.215207   -0.003128
      8         17           0       -2.765676    0.335895    0.038433
      9         17           0       -0.174182    0.342078    2.348081
 ---------------------------------------------------------------------
                    Distance matrix (angstroms):
                    1          2          3          4          5
     1  Pt   0.000000
     2  N    2.175458   0.000000
     3  O    2.942740   1.229074   0.000000
     4  O    2.948740   1.229071   2.179721   0.000000
     5  Br   2.544128   3.256124   3.707382   3.745945   0.000000
     6  Br   2.560113   3.454512   4.647969   3.240358   3.643048
     7  Br   2.559867   3.444717   3.222355   4.642881   3.645402
     8  Cl   2.405754   4.579103   5.245874   5.255718   3.490507
     9  Cl   2.415072   3.288534   3.925523   3.897996   4.958613
                    6          7          8          9
     6  Br   0.000000
     7  Br   5.111501   0.000000
     8  Cl   3.414148   3.419929   0.000000
     9  Cl   3.487743   3.488066   3.471362   0.000000
 Stoichiometry    Br3Cl2NO2Pt(2-)
 Framework group  C1[X(Br3Cl2NO2Pt)]
 Deg. of freedom    21
 Full point group                 C1      NOp   1
 Largest Abelian subgroup         C1      NOp   1
 Largest concise Abelian subgroup C1      NOp   1
                         Standard orientation:                         
 ---------------------------------------------------------------------
 Center     Atomic      Atomic             Coordinates (Angstroms)
 Number     Number       Type             X           Y           Z
 ---------------------------------------------------------------------
      1         78           0       -0.000638   -0.209639   -0.016078
      2          7           0        0.010638    0.151875    2.129102
      3          8           0        1.103023    0.364408    2.650779
      4          8           0       -1.076094    0.320799    2.677823
      5         35           0        0.003064    2.318412   -0.301617
      6         35           0       -2.556898   -0.268744   -0.143450
      7         35           0        2.554581   -0.280929   -0.152807
      8         17           0       -0.009613   -0.464668   -2.408259
      9         17           0       -0.006049   -2.599970    0.328678
 ---------------------------------------------------------------------
 Rotational constants (GHZ):      0.4210078      0.3205625      0.2868604
 Basis read from rwf:  (5D, 7F)
 Pseudo-potential data read from rwf file.
 There are   212 symmetry adapted cartesian basis functions of A   symmetry.
 There are   196 symmetry adapted basis functions of A   symmetry.
   196 basis functions,   432 primitive gaussians,   212 cartesian basis functions
    91 alpha electrons       91 beta electrons
       nuclear repulsion energy      2164.2869406179 Hartrees.
 NAtoms=    9 NActive=    9 NUniq=    9 SFac= 1.00D+00 NAtFMM=   60 NAOKFM=F Big=F
 Integral buffers will be    131072 words long.
 Raffenetti 2 integral format.
 Two-electron integral symmetry is turned on.
 ------------------------------------------------------------------------------
 Polarizable Continuum Model (PCM)
 =================================
 Model                : PCM (using non-symmetric T matrix).
 Atomic radii         : UFF (Universal Force Field).
 Polarization charges : Total charges.
 Charge compensation  : None.
 Solution method      : On-the-fly selection.
 Cavity type          : Scaled VdW (van der Waals Surface) (Alpha=1.100).
 Cavity algorithm     : GePol (No added spheres)
                        Default sphere list used, NSphG=    9.
                        Lebedev-Laikov grids with approx.  5.0 points / Ang**2.
                        Smoothing algorithm: Karplus/York (Gamma=1.0000).
                        Polarization charges: spherical gaussians, with
                                              point-specific exponents (IZeta= 3).
                        Self-potential: point-specific (ISelfS= 7).
                        Self-field    : sphere-specific E.n sum rule (ISelfD= 2).
 1st derivatives      : Analytical E(r).r(x)/FMM algorithm (CHGder, D1EAlg=3).
                        Cavity 1st derivative terms included.
 Solvent              : Water, Eps=  78.355300 Eps(inf)=   1.777849
 ------------------------------------------------------------------------------
 Spheres list:
 ISph  on   Nord     Re0    Alpha      Xe            Ye            Ze
    1  Pt      1    1.3770  1.100     -0.000638     -0.209639     -0.016078
    2   N      2    1.8300  1.100      0.010638      0.151875      2.129102
    3   O      3    1.7500  1.100      1.103023      0.364408      2.650779
    4   O      4    1.7500  1.100     -1.076094      0.320799      2.677823
    5  Br      5    2.0945  1.100      0.003064      2.318412     -0.301617
    6  Br      6    2.0945  1.100     -2.556898     -0.268744     -0.143450
    7  Br      7    2.0945  1.100      2.554581     -0.280929     -0.152807
    8  Cl      8    1.9735  1.100     -0.009613     -0.464668     -2.408259
    9  Cl      9    1.9735  1.100     -0.006049     -2.599970      0.328678
 ------------------------------------------------------------------------------
 One-electron integrals computed using PRISM.
   1 Symmetry operations used in ECPInt.
 ECPInt:  NShTT=    3081 NPrTT=   16147 LenC2=    2776 LenP2D=    9930.
 LDataN:  DoStor=T MaxTD1= 6 Len=  172
 NBasis=   196 RedAO= T EigKep=  6.32D-03  NBF=   196
 NBsUse=   196 1.00D-06 EigRej= -1.00D+00 NBFU=   196
 Defaulting to unpruned grid for atomic number  78.
 Initial guess from the checkpoint file:  "/home/scr/diego/Gau-16044.chk"
 B after Tr=     0.000000    0.000000    0.000000
         Rot=    0.995384   -0.095965    0.001146   -0.000603 Ang= -11.01 deg.
 ExpMin= 2.90D-02 ExpMax= 1.13D+05 ExpMxC= 1.70D+04 IAcc=3 IRadAn=         5 AccDes= 0.00D+00
 Harris functional with IExCor=  402 and IRadAn=       5 diagonalized for initial guess.
 HarFok:  IExCor=  402 AccDes= 0.00D+00 IRadAn=         5 IDoV= 1 UseB2=F ITyADJ=14
 ICtDFT=  3500011 ScaDFX=  1.000000  1.000000  1.000000  1.000000
 Defaulting to unpruned grid for atomic number  78.
 Defaulting to unpruned grid for atomic number  78.
 Defaulting to unpruned grid for atomic number  78.
 Defaulting to unpruned grid for atomic number  78.
 Defaulting to unpruned grid for atomic number  78.
 Defaulting to unpruned grid for atomic number  78.
 Defaulting to unpruned grid for atomic number  78.
 Defaulting to unpruned grid for atomic number  78.
 FoFCou: FMM=F IPFlag=           0 FMFlag=      100000 FMFlg1=           0
         NFxFlg=           0 DoJE=T BraDBF=F KetDBF=T FulRan=T
         wScrn=  0.000000 ICntrl=     500 IOpCl=  0 I1Cent=   200000004 NGrid=           0
         NMat0=    1 NMatS0=      1 NMatT0=    0 NMatD0=    1 NMtDS0=    0 NMtDT0=    0
 Petite list used in FoFCou.
 Keep R1 ints in memory in canonical form, NReq=192606239.
 Requested convergence on RMS density matrix=1.00D-08 within 128 cycles.
 Requested convergence on MAX density matrix=1.00D-06.
 Requested convergence on             energy=1.00D-06.
 No special actions if energy rises.
 Defaulting to unpruned grid for atomic number  78.
 Defaulting to unpruned grid for atomic number  78.
 Defaulting to unpruned grid for atomic number  78.
 Defaulting to unpruned grid for atomic number  78.
 Defaulting to unpruned grid for atomic number  78.
 Defaulting to unpruned grid for atomic number  78.
 Defaulting to unpruned grid for atomic number  78.
 Defaulting to unpruned grid for atomic number  78.
 Inv3:  Mode=1 IEnd=     8009868.
 Iteration    1 A*A^-1 deviation from unit magnitude is 6.22D-15 for    285.
 Iteration    1 A*A^-1 deviation from orthogonality  is 3.30D-15 for   1217    496.
 Iteration    1 A^-1*A deviation from unit magnitude is 6.66D-15 for    336.
 Iteration    1 A^-1*A deviation from orthogonality  is 9.43D-13 for   1032    358.
 Error on total polarization charges =  0.01521
 SCF Done:  E(RB3LYP) =  -8966.34299753     A.U. after   15 cycles
            NFock= 15  Conv=0.68D-08     -V/T= 2.0106
   1 Symmetry operations used in ECPInt.
 ECPInt:  NShTT=    3081 NPrTT=   16147 LenC2=    2776 LenP2D=    9930.
 LDataN:  DoStor=T MaxTD1= 7 Len=  274
 D1PCM: PCM CHGder 1st derivatives, ID1Alg=3 FixD1E=F DoIter=F DoCFld=F I1PDM=0.
 Calling FoFJK, ICntrl=      2127 FMM=F ISym2X=0 I1Cent= 0 IOpClX= 0 NMat=1 NMatS=1 NMatT=0.
 Defaulting to unpruned grid for atomic number  78.
 Defaulting to unpruned grid for atomic number  78.
 Defaulting to unpruned grid for atomic number  78.
 Defaulting to unpruned grid for atomic number  78.
 Defaulting to unpruned grid for atomic number  78.
 Defaulting to unpruned grid for atomic number  78.
 Defaulting to unpruned grid for atomic number  78.
 Defaulting to unpruned grid for atomic number  78.
 ***** Axes restored to original set *****
 -------------------------------------------------------------------
 Center     Atomic                   Forces (Hartrees/Bohr)
 Number     Number              X              Y              Z
 -------------------------------------------------------------------
      1       78           0.010739911    0.000041675    0.001043605
      2        7          -0.003590723    0.000073654   -0.015572029
      3        8          -0.002260466    0.022340499    0.007769684
      4        8          -0.002979786   -0.022424765    0.007067741
      5       35           0.001522127   -0.000036847   -0.001876913
      6       35           0.002119020    0.002166644   -0.001029621
      7       35           0.001863086   -0.002082473   -0.000847991
      8       17          -0.009291557   -0.000049996    0.001948976
      9       17           0.001878386   -0.000028392    0.001496548
 -------------------------------------------------------------------
 Cartesian Forces:  Max     0.022424765 RMS     0.007742659

 GradGradGradGradGradGradGradGradGradGradGradGradGradGradGradGradGradGrad
 Berny optimization.
 Using GEDIIS/GDIIS optimizer.
 FormGI is forming the generalized inverse of G from B-inverse, IUseBI=4.
 Internal  Forces:  Max     0.021973422 RMS     0.006457760
 Search for a local minimum.
 Step number   4 out of a maximum of   47
 All quantities printed in internal units (Hartrees-Bohrs-Radians)
 Mixed Optimization -- RFO/linear search
 Update second derivatives using D2CorX and points    3    4
 DE= -2.62D-02 DEPred=-4.04D-02 R= 6.48D-01
 TightC=F SS=  1.41D+00  RLast= 6.96D-01 DXNew= 8.4853D-01 2.0893D+00
 Trust test= 6.48D-01 RLast= 6.96D-01 DXMaxT set to 8.49D-01
 ITU=  1  0  1  0
 Use linear search instead of GDIIS.
     Eigenvalues ---    0.00230   0.01351   0.08416   0.08447   0.12111
     Eigenvalues ---    0.12385   0.12589   0.12780   0.14274   0.16753
     Eigenvalues ---    0.19425   0.19509   0.19539   0.20799   0.22009
     Eigenvalues ---    0.24986   0.24996   0.25000   0.28504   0.52947
     Eigenvalues ---    0.66811
 RFO step:  Lambda=-8.89742861D-03 EMin= 2.30005603D-03
 Quartic linear search produced a step of  0.09923.
 Iteration  1 RMS(Cart)=  0.07781409 RMS(Int)=  0.00989395
 Iteration  2 RMS(Cart)=  0.00869254 RMS(Int)=  0.00617936
 Iteration  3 RMS(Cart)=  0.00006894 RMS(Int)=  0.00617909
 Iteration  4 RMS(Cart)=  0.00000023 RMS(Int)=  0.00617909
 Variable       Old X    -DE/DX   Delta X   Delta X   Delta X     New X
                                 (Linear)    (Quad)   (Total)
    R1        4.11102  -0.00871  -0.00162  -0.05652  -0.05814   4.05287
    R2        4.80771   0.00181   0.00336  -0.01092  -0.00756   4.80015
    R3        4.83791   0.00202   0.00373  -0.01098  -0.00725   4.83066
    R4        4.83745   0.00197   0.00380  -0.01134  -0.00754   4.82991
    R5        4.54622   0.00936   0.00457   0.02091   0.02548   4.57169
    R6        4.56382   0.00164   0.00398  -0.01552  -0.01154   4.55229
    R7        2.32261  -0.02193  -0.00066  -0.02429  -0.02495   2.29766
    R8        2.32261  -0.02197  -0.00057  -0.02453  -0.02510   2.29751
    A1        1.51631  -0.00016  -0.00118   0.00366   0.00250   1.51880
    A2        1.62890  -0.00310  -0.00334  -0.02076  -0.02402   1.60488
    A3        1.62294  -0.00223  -0.00272  -0.01759  -0.02024   1.60271
    A4        1.59452  -0.00378  -0.00085  -0.02977  -0.03064   1.56388
    A5        1.58961  -0.00075  -0.00063  -0.00771  -0.00845   1.58115
    A6        1.59102  -0.00067  -0.00055  -0.00807  -0.00871   1.58232
    A7        1.56454   0.00376   0.00100   0.02974   0.03074   1.59528
    A8        1.51512   0.00276   0.00302   0.01842   0.02165   1.53677
    A9        1.55281   0.00094   0.00063   0.00951   0.00955   1.56235
   A10        1.51843   0.00234   0.00298   0.01773   0.02093   1.53936
   A11        1.55309   0.00075   0.00071   0.00796   0.00813   1.56122
   A12        1.60782   0.00017   0.00103  -0.00363  -0.00260   1.60522
   A13        2.03967   0.00693  -0.00661   0.06657   0.03840   2.07807
   A14        2.04710   0.00563  -0.00703   0.06222   0.03365   2.08074
   A15        2.18046  -0.01124   0.02690  -0.07323  -0.06819   2.11227
   A16        3.08085   0.00360  -0.00018   0.03340   0.03323   3.11408
   A17        3.11083  -0.00393  -0.00203  -0.02610  -0.02814   3.08269
[...]
 Rotational               0.889              2.981             33.389
 Vibrational             17.258             33.520             48.175
 Vibration     1          0.595              1.979              4.921
 Vibration     2          0.599              1.966              4.028
 Vibration     3          0.600              1.961              3.807
 Vibration     4          0.603              1.952              3.529
 Vibration     5          0.605              1.945              3.354
 Vibration     6          0.606              1.944              3.323
 Vibration     7          0.607              1.940              3.250
 Vibration     8          0.611              1.926              2.992
 Vibration     9          0.612              1.923              2.936
 Vibration    10          0.613              1.918              2.866
 Vibration    11          0.627              1.875              2.396
 Vibration    12          0.637              1.842              2.145
 Vibration    13          0.643              1.824              2.032
 Vibration    14          0.669              1.744              1.653
 Vibration    15          0.677              1.721              1.569
 Vibration    16          0.686              1.694              1.479
 Vibration    17          0.713              1.615              1.259
 Vibration    18          0.969              1.011              0.433
                       Q            Log10(Q)             Ln(Q)
 Total Bot       0.168246D+14         13.225945         30.453864
 Total V=0       0.650403D+21         20.813183         47.924124
 Vib (Bot)       0.755465D-02         -2.121786         -4.885592
 Vib (Bot)    1  0.435821D+01          0.639308          1.472061
 Vib (Bot)    2  0.276241D+01          0.441289          1.016104
 Vib (Bot)    3  0.246534D+01          0.391877          0.902330
 Vib (Bot)    4  0.213399D+01          0.329193          0.757995
 Vib (Bot)    5  0.194705D+01          0.289376          0.666314
 Vib (Bot)    6  0.191565D+01          0.282316          0.650056
 Vib (Bot)    7  0.184332D+01          0.265601          0.611569
 Vib (Bot)    8  0.160751D+01          0.206154          0.474686
 Vib (Bot)    9  0.155938D+01          0.192952          0.444289
 Vib (Bot)   10  0.150243D+01          0.176793          0.407082
 Vib (Bot)   11  0.115919D+01          0.064153          0.147718
 Vib (Bot)   12  0.100396D+01          0.001715          0.003949
 Vib (Bot)   13  0.939431D+00         -0.027135         -0.062481
 Vib (Bot)   14  0.742724D+00         -0.129173         -0.297431
 Vib (Bot)   15  0.703165D+00         -0.152943         -0.352164
 Vib (Bot)   16  0.661560D+00         -0.179431         -0.413155
 Vib (Bot)   17  0.565554D+00         -0.247526         -0.569950
 Vib (Bot)   18  0.242318D+00         -0.615614         -1.417504
 Vib (V=0)       0.292047D+06          5.465452         12.584669
 Vib (V=0)    1  0.488680D+01          0.689024          1.586537
 Vib (V=0)    2  0.330730D+01          0.519473          1.196132
 Vib (V=0)    3  0.301553D+01          0.479364          1.103777
 Vib (V=0)    4  0.269179D+01          0.430040          0.990205
 Vib (V=0)    5  0.251022D+01          0.399712          0.920371
 Vib (V=0)    6  0.247983D+01          0.394421          0.908188
 Vib (V=0)    7  0.240993D+01          0.382004          0.879598
 Vib (V=0)    8  0.218347D+01          0.339148          0.780917
 Vib (V=0)    9  0.213758D+01          0.329922          0.759674
 Vib (V=0)   10  0.208344D+01          0.318781          0.734021
 Vib (V=0)   11  0.176242D+01          0.246110          0.566689
 Vib (V=0)   12  0.162157D+01          0.209937          0.483397
 Vib (V=0)   13  0.156420D+01          0.194293          0.447377
 Vib (V=0)   14  0.139534D+01          0.144681          0.333140
 Vib (V=0)   15  0.136281D+01          0.134435          0.309548
 Vib (V=0)   16  0.132925D+01          0.123608          0.284617
 Vib (V=0)   17  0.125488D+01          0.098604          0.227044
 Vib (V=0)   18  0.105562D+01          0.023509          0.054132
 Electronic      0.100000D+01          0.000000          0.000000
 Translational   0.503745D+09          8.702210         20.037580
 Rotational      0.442100D+07          6.645520         15.301876
 ***** Axes restored to original set *****
 -------------------------------------------------------------------
 Center     Atomic                   Forces (Hartrees/Bohr)
 Number     Number              X              Y              Z
 -------------------------------------------------------------------
      1       78           0.000073781    0.000016585   -0.000052609
      2        7          -0.000121517    0.000006191   -0.000025133
      3        8           0.000027685   -0.000045482    0.000062714
      4        8           0.000012765    0.000002020    0.000003669
      5       35           0.000019305   -0.000087743   -0.000001735
      6       35           0.000018983    0.000007660   -0.000112603
      7       35          -0.000016904    0.000017181    0.000119032
      8       17          -0.000005254    0.000005376   -0.000024492
      9       17          -0.000008843    0.000078213    0.000031159
 -------------------------------------------------------------------
 Cartesian Forces:  Max     0.000121517 RMS     0.000052570
 FormGI is forming the generalized inverse of G from B-inverse, IUseBI=4.

 GradGradGradGradGradGradGradGradGradGradGradGradGradGradGradGradGradGrad
 Berny optimization.
 Internal  Forces:  Max     0.000083276 RMS     0.000021857
 Search for a local minimum.
 Step number   1 out of a maximum of    2
 All quantities printed in internal units (Hartrees-Bohrs-Radians)
 Second derivative matrix not updated -- analytic derivatives used.
 ITU=  0
     Eigenvalues ---    0.00162   0.04370   0.05176   0.06065   0.06901
     Eigenvalues ---    0.07369   0.07401   0.08073   0.08687   0.09284
     Eigenvalues ---    0.09588   0.09986   0.10525   0.10884   0.12457
     Eigenvalues ---    0.12763   0.15132   0.19661   0.32701   0.59036
     Eigenvalues ---    0.84622
 Angle between quadratic step and forces=  49.31 degrees.
 Linear search not attempted -- first point.
 Iteration  1 RMS(Cart)=  0.00046974 RMS(Int)=  0.00000011
 Iteration  2 RMS(Cart)=  0.00000011 RMS(Int)=  0.00000001
 Variable       Old X    -DE/DX   Delta X   Delta X   Delta X     New X
                                 (Linear)    (Quad)   (Total)
    R1        3.97636  -0.00008   0.00000  -0.00088  -0.00088   3.97548
    R2        4.82202   0.00000   0.00000  -0.00002  -0.00002   4.82200
    R3        4.84687   0.00001   0.00000   0.00014   0.00014   4.84701
    R4        4.84645   0.00000   0.00000   0.00000   0.00000   4.84645
    R5        4.64822   0.00000   0.00000   0.00008   0.00008   4.64830
    R6        4.58498   0.00004   0.00000   0.00045   0.00045   4.58543
    R7        2.29729   0.00000   0.00000   0.00003   0.00003   2.29732
    R8        2.29644   0.00001   0.00000   0.00005   0.00005   2.29649
    A1        1.57676   0.00000   0.00000   0.00008   0.00008   1.57684
    A2        1.57082  -0.00001   0.00000  -0.00007  -0.00007   1.57075
    A3        1.56633   0.00001   0.00000   0.00003   0.00003   1.56636
    A4        1.57129  -0.00001   0.00000  -0.00001  -0.00001   1.57128
    A5        1.55555  -0.00001   0.00000  -0.00013  -0.00013   1.55542
    A6        1.58549   0.00002   0.00000   0.00035   0.00035   1.58584
    A7        1.56467   0.00000   0.00000  -0.00007  -0.00007   1.56461
    A8        1.57201   0.00003   0.00000   0.00026   0.00026   1.57227
    A9        1.58461   0.00002   0.00000   0.00031   0.00031   1.58492
   A10        1.57402  -0.00003   0.00000  -0.00022  -0.00022   1.57380
   A11        1.55757  -0.00004   0.00000  -0.00053  -0.00053   1.55704
   A12        1.57046   0.00001   0.00000   0.00000   0.00000   1.57045
   A13        2.06240   0.00003   0.00000   0.00016   0.00016   2.06255
   A14        2.05928   0.00000   0.00000  -0.00001  -0.00001   2.05926
   A15        2.16151  -0.00003   0.00000  -0.00014  -0.00014   2.16136
   A16        3.14144   0.00000   0.00000   0.00001   0.00001   3.14145
   A17        3.14806  -0.00001   0.00000   0.00007   0.00007   3.14813
   A18        3.13716   0.00000   0.00000  -0.00004  -0.00004   3.13711
   A19        3.14035  -0.00002   0.00000  -0.00019  -0.00019   3.14016
   A20        3.14016   0.00001   0.00000   0.00018   0.00018   3.14033
   A21        3.14218  -0.00001   0.00000  -0.00022  -0.00022   3.14195
    D1       -0.75132  -0.00001   0.00000   0.00032   0.00032  -0.75100
    D2        2.39297   0.00001   0.00000   0.00078   0.00078   2.39375
    D3       -2.30686   0.00000   0.00000   0.00045   0.00045  -2.30642
    D4        0.83743   0.00002   0.00000   0.00091   0.00091   0.83834
    D5        0.83415   0.00001   0.00000   0.00067   0.00067   0.83482
    D6       -2.30475   0.00003   0.00000   0.00113   0.00113  -2.30362
    D7        2.39171  -0.00003   0.00000   0.00014   0.00014   2.39185
    D8       -0.74718  -0.00001   0.00000   0.00060   0.00060  -0.74658
         Item               Value     Threshold  Converged?
 Maximum Force            0.000083     0.000450     YES
 RMS     Force            0.000022     0.000300     YES
 Maximum Displacement     0.001264     0.001800     YES
 RMS     Displacement     0.000470     0.001200     YES
 Predicted change in Energy=-1.033773D-07
 Optimization completed.
    -- Stationary point found.
                           ----------------------------
                           !   Optimized Parameters   !
                           ! (Angstroms and Degrees)  !
 --------------------------                            --------------------------
 ! Name  Definition              Value          Derivative Info.                !
 --------------------------------------------------------------------------------
 ! R1    R(1,2)                  2.1042         -DE/DX =   -0.0001              !
 ! R2    R(1,5)                  2.5517         -DE/DX =    0.0                 !
 ! R3    R(1,6)                  2.5649         -DE/DX =    0.0                 !
 ! R4    R(1,7)                  2.5646         -DE/DX =    0.0                 !
 ! R5    R(1,8)                  2.4597         -DE/DX =    0.0                 !
 ! R6    R(1,9)                  2.4263         -DE/DX =    0.0                 !
 ! R7    R(2,3)                  1.2157         -DE/DX =    0.0                 !
 ! R8    R(2,4)                  1.2152         -DE/DX =    0.0                 !
 ! A1    A(2,1,5)               90.3419         -DE/DX =    0.0                 !
 ! A2    A(2,1,6)               90.0014         -DE/DX =    0.0                 !
 ! A3    A(2,1,7)               89.7444         -DE/DX =    0.0                 !
 ! A4    A(2,1,9)               90.0284         -DE/DX =    0.0                 !
 ! A5    A(5,1,6)               89.1262         -DE/DX =    0.0                 !
 ! A6    A(5,1,7)               90.8419         -DE/DX =    0.0                 !
 ! A7    A(5,1,8)               89.6492         -DE/DX =    0.0                 !
 ! A8    A(6,1,8)               90.0694         -DE/DX =    0.0                 !
 ! A9    A(6,1,9)               90.7915         -DE/DX =    0.0                 !
 ! A10   A(7,1,8)               90.1848         -DE/DX =    0.0                 !
 ! A11   A(7,1,9)               89.2421         -DE/DX =    0.0                 !
 ! A12   A(8,1,9)               89.9806         -DE/DX =    0.0                 !
 ! A13   A(1,2,3)              118.1668         -DE/DX =    0.0                 !
 ! A14   A(1,2,4)              117.9879         -DE/DX =    0.0                 !
 ! A15   A(3,2,4)              123.8451         -DE/DX =    0.0                 !
 ! A16   L(2,1,8,5,-1)         179.9911         -DE/DX =    0.0                 !
 ! A17   L(5,1,9,2,-1)         180.3703         -DE/DX =    0.0                 !
 ! A18   L(6,1,7,2,-1)         179.7457         -DE/DX =    0.0                 !
 ! A19   L(2,1,8,5,-2)         179.9291         -DE/DX =    0.0                 !
 ! A20   L(5,1,9,2,-2)         179.9177         -DE/DX =    0.0                 !
 ! A21   L(6,1,7,2,-2)         180.0334         -DE/DX =    0.0                 !
 ! D1    D(5,1,2,3)            -43.0473         -DE/DX =    0.0                 !
 ! D2    D(5,1,2,4)            137.1071         -DE/DX =    0.0                 !
 ! D3    D(6,1,2,3)           -132.1735         -DE/DX =    0.0                 !
 ! D4    D(6,1,2,4)             47.981          -DE/DX =    0.0                 !
 ! D5    D(7,1,2,3)             47.7931         -DE/DX =    0.0                 !
 ! D6    D(7,1,2,4)           -132.0525         -DE/DX =    0.0                 !
 ! D7    D(9,1,2,3)            137.035          -DE/DX =    0.0                 !
 ! D8    D(9,1,2,4)            -42.8105         -DE/DX =    0.0                 !
 --------------------------------------------------------------------------------
 GradGradGradGradGradGradGradGradGradGradGradGradGradGradGradGradGradGrad

 1\1\GINC-NEQC17\Freq\RB3LYP\Gen\Br3Cl2N1O2Pt1(2-)\DIEGO\18-Aug-2021\0\
 \#N Geom=AllCheck Guess=TCheck SCRF=Check GenChk RB3LYP/ChkBas Freq\\E
 strutura 31\\-2,1\Pt,-0.3606076163,0.3487720253,-0.1016619829\N,1.7368
 958731,0.3235875487,-0.267477249\O,2.2416244738,-0.4623164759,-1.04559
 43195\O,2.3728886586,1.0948186498,0.4235248364\Br,-0.5783863829,0.1894
 147775,-2.6390581216\Br,-0.3458724803,2.9056802078,-0.302845553\Br,-0.
 3641156802,-2.2081393976,0.0971175041\Cl,-2.8125642579,0.375149494,0.0
 919817316\Cl,-0.1691367378,0.5039650103,2.3120529839\\Version=EM64L-G0
 9RevD.01\State=1-A\HF=-8966.3492757\RMSD=1.560e-09\RMSF=5.257e-05\Zero
 Point=0.0164952\Thermal=0.030335\Dipole=0.3737798,-0.05874,-0.8292336\
 DipoleDeriv=0.9566973,-0.0101462,0.0034087,-0.0051235,1.4844704,-0.128
 283,0.0477404,-0.1338437,1.3349774,2.9774779,0.058402,0.0032456,0.0683
 89,1.3810518,0.8830149,-0.1019172,0.88026,1.2750981,-1.7925852,0.33003
 24,0.371007,0.4059147,-0.7448934,-0.4499551,0.4831699,-0.4505028,-0.74
 69104,-1.9298897,-0.3781576,-0.3099546,-0.4565037,-0.7323227,-0.394924
 3,-0.3393807,-0.3854729,-0.6400481,-0.153988,-0.0309882,-0.0867588,-0.
 0280537,-0.0729713,-0.067518,-0.1451922,-0.0669504,-1.2509177,-0.13722
 61,-0.0146278,0.028402,0.0391489,-1.4739946,0.1122106,0.0076771,0.0974
 978,-0.1174955,-0.1406807,0.0076543,-0.0231155,-0.0396365,-1.4725008,0
 .1289662,0.0049122,0.1402441,-0.1082359,-1.5785283,0.0107392,0.1093438
 ,0.015891,-0.2279008,0.0020214,0.1145438,0.0029591,-0.2514923,-0.20127
 73,0.027092,-0.0955782,-0.0000262,-0.1409388,-0.0855328,-0.0715532,-0.
 0841912,-1.4949756\Polar=193.4016835,0.864572,249.2095411,3.2316616,3.
 2220773,214.9149446\PG=C01 [X(Br3Cl2N1O2Pt1)]\NImag=0\\0.20294370,0.00
 097604,0.22458572,0.00210628,0.01144227,0.24222110,-0.06828030,0.00143
 392,0.00250395,0.55687542,0.00149960,-0.04603091,0.01450277,0.03010928
 ,0.56542367,0.00233200,0.01422396,-0.04834229,0.00232787,0.38110978,0.
 52346638,-0.00503415,0.01612500,0.01684214,-0.21940336,0.14192445,0.14
 522404,0.18914457,0.00435748,0.00229559,-0.01164723,0.13487917,-0.2658
 7440,-0.20899681,-0.14056722,0.33233438,0.00525355,-0.01233532,0.00228
 352,0.13864011,-0.20932925,-0.26239607,-0.14272778,0.30224359,0.319789
 50,-0.00910101,-0.01773030,-0.01561833,-0.27210175,-0.17218610,-0.1491
 2646,0.04981746,-0.00019072,-0.00196343,0.24417554,-0.00607393,0.00288
 789,-0.01071994,-0.16600486,-0.25899367,-0.18334537,-0.01585941,-0.068
 46353,-0.08342370,0.18689466,0.32465725,-0.00387753,-0.00968565,0.0052
 6955,-0.14420190,-0.18380980,-0.21984139,-0.01672374,-0.08410828,-0.05
 841789,0.16302448,0.27417960,0.27350913,-0.01254407,-0.00003596,-0.003
 37443,-0.00470031,0.00258997,-0.00197347,-0.00080825,-0.00095743,-0.00
 565557,0.00048745,-0.00080672,-0.00009098,0.01611061,-0.00059172,-0.01
 585167,-0.00365126,0.00050689,-0.00047093,-0.00147031,0.00056942,0.001
 52304,0.00160854,-0.00007260,0.00041220,0.00045199,-0.00194411,0.01175
 108,-0.00444863,-0.00434402,-0.06976568,-0.00100275,-0.00000676,-0.000
 07163,-0.00289120,0.00023476,-0.00057194,-0.00034891,0.00030256,0.0001
 9182,0.00850154,0.00506136,0.08454747,-0.01182860,-0.00143740,-0.00032
 865,-0.00473648,0.00200438,-0.00270096,0.00073780,0.00001798,0.0007980
 9,0.00007992,0.00436944,0.00151331,-0.00071606,-0.00000771,-0.00108471
 ,0.01499192,-0.00039782,-0.06511210,0.00266314,0.00177613,-0.00110043,
 0.00023192,0.00016172,0.00036943,0.00023995,0.00195357,-0.00077852,0.0
 0035250,-0.00033189,-0.00171249,-0.00275712,-0.00035622,0.07945942,0.0
 0018297,0.00352686,-0.01455141,-0.00032283,-0.00132513,-0.00008296,-0.
 00002491,0.00045678,0.00025227,-0.00069396,0.00137627,0.00102358,-0.00
 135719,-0.00538386,-0.00190754,0.00130590,-0.00501649,0.01421677,-0.01
 192206,0.00089442,-0.00002325,-0.00438121,-0.00223138,0.00332139,-0.00
 030551,-0.00430446,-0.00074875,0.00064999,0.00007589,-0.00080281,-0.00
 062401,0.00158703,0.00015464,0.00269296,-0.00008755,0.00003191,0.01506
 114,-0.00028297,-0.06517524,0.00329769,-0.00189885,-0.00088795,0.00049
 792,-0.00127301,-0.00187606,-0.00039394,-0.00012294,0.00035218,0.00030
 267,0.00102319,-0.00032468,0.00206496,0.00004831,-0.01025519,0.0010934
 4,-0.00126565,0.08186693,-0.00056980,0.00352364,-0.01457575,0.00082013
 ,-0.00104974,-0.00067616,0.00051056,0.00135930,0.00006662,0.00003426,0
 .00043236,0.00039591,0.00073750,0.00381971,-0.00138895,0.00001053,0.00
 134402,0.00277221,-0.00164401,-0.00384866,0.01276459,-0.06977517,0.000
 64545,0.00391869,0.02145869,-0.00026673,-0.00115876,-0.01471778,0.0055
 4790,0.00616970,-0.01549040,-0.00507264,-0.00385640,-0.00026691,0.0000
 1021,0.00204019,-0.00171677,-0.00279147,0.00104902,-0.00255168,0.00385
 314,0.00026036,0.08564927,0.00046626,-0.02074607,-0.00118546,-0.000189
 61,0.00839013,-0.00086510,-0.00123141,-0.00073416,0.00089804,0.0016950
 8,-0.00065633,0.00078600,0.00053220,0.00132917,0.00017133,-0.00517785,
 -0.00033885,0.00040816,0.00590160,-0.00196816,-0.00034744,-0.00201232,
 0.01386294,0.00421056,-0.00122099,-0.02119434,-0.00094401,-0.00089254,
 0.00856163,-0.00029597,0.00045280,-0.00114516,0.00254990,0.00126321,-0
 .00060708,0.00437493,0.00025878,-0.00065057,0.00126379,0.00027656,0.00
 063723,0.00012839,-0.00028025,0.00037356,-0.00657762,0.00054458,0.0147
 8229,-0.01445835,-0.00087116,-0.00602642,-0.00473070,-0.00344346,0.001
 75436,0.00056922,0.00121730,0.00023408,0.00148280,0.00247757,0.0050155
 7,0.00306154,-0.00005741,-0.00092017,0.00049531,0.00007353,-0.00017090
 ,0.00138039,-0.00008123,-0.00015954,-0.00258927,0.00001606,-0.00470998
 ,0.01478907,0.00004706,-0.01685322,-0.00470199,-0.00061207,-0.00045551
 ,-0.00138599,0.00015046,0.00042571,0.00049209,-0.00024065,0.00058252,0
 .00153096,-0.00006925,0.00334430,-0.00072707,0.00053907,-0.00053128,0.
 00486397,-0.00056989,-0.00173183,-0.00523318,0.00008647,0.00086134,-0.
 00040214,0.00066880,0.01435797,-0.00518939,-0.00513074,-0.08134469,0.0
 0217944,0.00080067,-0.00061751,0.00008686,0.00000508,0.00013916,0.0021
 4244,-0.00006499,-0.00152363,-0.00116234,-0.00069495,-0.01038297,-0.00
 077731,0.00266552,-0.00236015,-0.00041751,-0.00273382,0.00026796,-0.00
 184518,-0.00041012,-0.00075755,0.00498300,0.00556335,0.09657938\\-0.00
 007378,-0.00001658,0.00005261,0.00012152,-0.00000619,0.00002513,-0.000
 02768,0.00004548,-0.00006271,-0.00001276,-0.00000202,-0.00000367,-0.00
 001930,0.00008774,0.00000174,-0.00001898,-0.00000766,0.00011260,0.0000
 1690,-0.00001718,-0.00011903,0.00000525,-0.00000538,0.00002449,0.00000
 884,-0.00007821,-0.00003116\\\@


 A MAN IS NEVER SO BRILLIANT AS WHEN HE TAKES THE WORDS RIGHT OUT
 OF YOUR MOUTH. -- ARNOT SHEPPARD, JR.
 Job cpu time:       0 days  0 hours 15 minutes 21.1 seconds.
 File lengths (MBytes):  RWF=    111 Int=      0 D2E=      0 Chk=      7 Scr=      1
 Normal termination of Gaussian 09 at Wed Aug 18 04:33:54 2021.
