 Entering Gaussian System, Link 0=g09
 Input=estrutura32_D2O.com
 Output=estrutura32_D2O.log
 Initial command:
 /home/scr/programs/g09/l1.exe "/home/scr/diego/Gau-17887.inp" -scrdir="/home/scr/diego/"
 Entering Link 1 = /home/scr/programs/g09/l1.exe PID=     17889.
  
 Copyright (c) 1988,1990,1992,1993,1995,1998,2003,2009,2013,
            Gaussian, Inc.  All Rights Reserved.
  
 This is part of the Gaussian(R) 09 program.  It is based on
 the Gaussian(R) 03 system (copyright 2003, Gaussian, Inc.),
 the Gaussian(R) 98 system (copyright 1998, Gaussian, Inc.),
 the Gaussian(R) 94 system (copyright 1995, Gaussian, Inc.),
 the Gaussian 92(TM) system (copyright 1992, Gaussian, Inc.),
 the Gaussian 90(TM) system (copyright 1990, Gaussian, Inc.),
 the Gaussian 88(TM) system (copyright 1988, Gaussian, Inc.),
 the Gaussian 86(TM) system (copyright 1986, Carnegie Mellon
 University), and the Gaussian 82(TM) system (copyright 1983,
 Carnegie Mellon University). Gaussian is a federally registered
 trademark of Gaussian, Inc.
  
 This software contains proprietary and confidential information,
 including trade secrets, belonging to Gaussian, Inc.
  
 This software is provided under written license and may be
 used, copied, transmitted, or stored only in accord with that
 written license.
  
 The following legend is applicable only to US Government
 contracts under FAR:
  
                    RESTRICTED RIGHTS LEGEND
  
 Use, reproduction and disclosure by the US Government is
 subject to restrictions as set forth in subparagraphs (a)
 and (c) of the Commercial Computer Software - Restricted
 Rights clause in FAR 52.227-19.
  
 Gaussian, Inc.
 340 Quinnipiac St., Bldg. 40, Wallingford CT 06492
  
  
 ---------------------------------------------------------------
 Warning -- This program may not be used in any manner that
 competes with the business of Gaussian, Inc. or will provide
 assistance to any competitor of Gaussian, Inc.  The licensee
 of this program is prohibited from giving any competitor of
 Gaussian, Inc. access to this program.  By using this program,
 the user acknowledges that Gaussian, Inc. is engaged in the
 business of creating and licensing software in the field of
 computational chemistry and represents and warrants to the
 licensee that it is not a competitor of Gaussian, Inc. and that
 it will not use this program in any manner prohibited above.
 ---------------------------------------------------------------
  

 Cite this work as:
 Gaussian 09, Revision D.01,
 M. J. Frisch, G. W. Trucks, H. B. Schlegel, G. E. Scuseria, 
 M. A. Robb, J. R. Cheeseman, G. Scalmani, V. Barone, B. Mennucci, 
 G. A. Petersson, H. Nakatsuji, M. Caricato, X. Li, H. P. Hratchian, 
 A. F. Izmaylov, J. Bloino, G. Zheng, J. L. Sonnenberg, M. Hada, 
 M. Ehara, K. Toyota, R. Fukuda, J. Hasegawa, M. Ishida, T. Nakajima, 
 Y. Honda, O. Kitao, H. Nakai, T. Vreven, J. A. Montgomery, Jr., 
 J. E. Peralta, F. Ogliaro, M. Bearpark, J. J. Heyd, E. Brothers, 
 K. N. Kudin, V. N. Staroverov, T. Keith, R. Kobayashi, J. Normand, 
 K. Raghavachari, A. Rendell, J. C. Burant, S. S. Iyengar, J. Tomasi, 
 M. Cossi, N. Rega, J. M. Millam, M. Klene, J. E. Knox, J. B. Cross, 
 V. Bakken, C. Adamo, J. Jaramillo, R. Gomperts, R. E. Stratmann, 
 O. Yazyev, A. J. Austin, R. Cammi, C. Pomelli, J. W. Ochterski, 
 R. L. Martin, K. Morokuma, V. G. Zakrzewski, G. A. Voth, 
 P. Salvador, J. J. Dannenberg, S. Dapprich, A. D. Daniels, 
 O. Farkas, J. B. Foresman, J. V. Ortiz, J. Cioslowski, 
 and D. J. Fox, Gaussian, Inc., Wallingford CT, 2013.
 
 ******************************************
 Gaussian 09:  EM64L-G09RevD.01 24-Apr-2013
                18-Aug-2021 
 ******************************************
 %mem=15gb
 %nproc=8
 Will use up to    8 processors via shared memory.
 ------------------------------------------------------------
 #b3lyp/gen pseudo=read opt freq=noraman scrf=(solvent=water)
 ------------------------------------------------------------
 1/14=-1,18=20,19=15,26=3,38=1/1,3;
 2/9=110,12=2,17=6,18=5,40=1/2;
 3/5=7,11=2,16=1,17=8,25=1,30=1,70=2201,71=1,72=1,74=-5/1,2,3;
 4//1;
 5/5=2,38=5,53=1/2;
 6/7=2,8=2,9=2,10=2,28=1/1;
 7//1,2,3,16;
 1/14=-1,18=20,19=15,26=3/3(2);
 2/9=110/2;
 99//99;
 2/9=110/2;
 3/5=7,6=1,11=2,16=1,17=8,25=1,30=1,70=2205,71=1,72=1,74=-5,82=7/1,2,3;
 4/5=5,16=3,69=1/1;
 5/5=2,38=5,53=1/2;
 7//1,2,3,16;
 1/14=-1,18=20,19=15,26=3/3(-5);
 2/9=110/2;
 6/7=2,8=2,9=2,10=2,19=2,28=1/1;
 99/9=1/99;
 ------------
 Estrutura 32
 ------------
 Symbolic Z-matrix:
 Charge = -2 Multiplicity = 1
 Pt                   -0.31955   0.33835   0. 
 Br                   -0.31955   0.33835  -2.43 
 Br                   -0.31955   2.76835   0. 
 Cl                   -2.59955   0.33835   0. 
 Cl                   -0.31955   0.33835   2.28 
 Br                    1.67045   0.33835   0. 
 N                    -0.31955  -1.65165   0. 
 O                    -1.53658  -2.10499  -0.40365 
 O                    -0.06061  -2.10499   1.2558 
 

 GradGradGradGradGradGradGradGradGradGradGradGradGradGradGradGradGradGrad
 Berny optimization.
 Initialization pass.
                           ----------------------------
                           !    Initial Parameters    !
                           ! (Angstroms and Degrees)  !
 --------------------------                            --------------------------
 ! Name  Definition              Value          Derivative Info.                !
 --------------------------------------------------------------------------------
 ! R1    R(1,2)                  2.43           estimate D2E/DX2                !
 ! R2    R(1,3)                  2.43           estimate D2E/DX2                !
 ! R3    R(1,4)                  2.28           estimate D2E/DX2                !
 ! R4    R(1,5)                  2.28           estimate D2E/DX2                !
 ! R5    R(1,6)                  1.99           estimate D2E/DX2                !
 ! R6    R(1,7)                  1.99           estimate D2E/DX2                !
 ! R7    R(7,8)                  1.36           estimate D2E/DX2                !
 ! R8    R(7,9)                  1.36           estimate D2E/DX2                !
 ! A1    A(2,1,3)               90.0            estimate D2E/DX2                !
 ! A2    A(2,1,4)               90.0            estimate D2E/DX2                !
 ! A3    A(2,1,6)               90.0            estimate D2E/DX2                !
 ! A4    A(2,1,7)               90.0            estimate D2E/DX2                !
 ! A5    A(3,1,4)               90.0            estimate D2E/DX2                !
 ! A6    A(3,1,5)               90.0            estimate D2E/DX2                !
 ! A7    A(3,1,6)               90.0            estimate D2E/DX2                !
 ! A8    A(4,1,5)               90.0            estimate D2E/DX2                !
 ! A9    A(4,1,7)               90.0            estimate D2E/DX2                !
 ! A10   A(5,1,6)               90.0            estimate D2E/DX2                !
 ! A11   A(5,1,7)               90.0            estimate D2E/DX2                !
 ! A12   A(6,1,7)               90.0            estimate D2E/DX2                !
 ! A13   A(1,7,8)              109.4712         estimate D2E/DX2                !
 ! A14   A(1,7,9)              109.4712         estimate D2E/DX2                !
 ! A15   A(8,7,9)              109.4713         estimate D2E/DX2                !
 ! A16   L(2,1,5,3,-1)         180.0            estimate D2E/DX2                !
 ! A17   L(3,1,7,2,-1)         180.0            estimate D2E/DX2                !
 ! A18   L(4,1,6,2,-1)         180.0            estimate D2E/DX2                !
 ! A19   L(2,1,5,3,-2)         180.0            estimate D2E/DX2                !
 ! A20   L(3,1,7,2,-2)         180.0            estimate D2E/DX2                !
 ! A21   L(4,1,6,2,-2)         180.0            estimate D2E/DX2                !
 ! D1    D(2,1,7,8)            -71.6508         estimate D2E/DX2                !
 ! D2    D(2,1,7,9)            168.3492         estimate D2E/DX2                !
 ! D3    D(4,1,7,8)             18.3492         estimate D2E/DX2                !
 ! D4    D(4,1,7,9)           -101.6508         estimate D2E/DX2                !
 ! D5    D(5,1,7,8)            108.3492         estimate D2E/DX2                !
 ! D6    D(5,1,7,9)            -11.6508         estimate D2E/DX2                !
 ! D7    D(6,1,7,8)           -161.6508         estimate D2E/DX2                !
 ! D8    D(6,1,7,9)             78.3492         estimate D2E/DX2                !
 --------------------------------------------------------------------------------
 Trust Radius=3.00D-01 FncErr=1.00D-07 GrdErr=1.00D-06
 Number of steps in this run=     47 maximum allowed number of steps=    100.
 GradGradGradGradGradGradGradGradGradGradGradGradGradGradGradGradGradGrad

                          Input orientation:                          
 ---------------------------------------------------------------------
 Center     Atomic      Atomic             Coordinates (Angstroms)
 Number     Number       Type             X           Y           Z
 ---------------------------------------------------------------------
      1         78           0       -0.319549    0.338346    0.000000
      2         35           0       -0.319549    0.338346   -2.430000
      3         35           0       -0.319549    2.768346    0.000000
      4         17           0       -2.599549    0.338346    0.000000
      5         17           0       -0.319549    0.338346    2.280000
      6         35           0        1.670451    0.338346    0.000000
      7          7           0       -0.319549   -1.651654    0.000000
      8          8           0       -1.536575   -2.104987   -0.403653
      9          8           0       -0.060609   -2.104987    1.255802
 ---------------------------------------------------------------------
                    Distance matrix (angstroms):
                    1          2          3          4          5
     1  Pt   0.000000
     2  Br   2.430000   0.000000
     3  Br   2.430000   3.436539   0.000000
     4  Cl   2.280000   3.332161   3.332161   0.000000
     5  Cl   2.280000   4.710000   3.332161   3.224407   0.000000
     6  Br   1.990000   3.140860   3.140860   4.270000   3.026301
     7  N    1.990000   3.140860   4.420000   3.026301   3.026301
     8  O    2.759341   3.399575   5.039193   2.694944   3.827927
     9  O    2.759341   4.429680   5.039193   3.740739   2.661937
                    6          7          8          9
     6  Br   0.000000
     7  N    2.814285   0.000000
     8  O    4.051892   1.360000   0.000000
     9  O    3.247073   1.360000   2.220871   0.000000
 Stoichiometry    Br3Cl2NO2Pt(2-)
 Framework group  C1[X(Br3Cl2NO2Pt)]
 Deg. of freedom    21
 Full point group                 C1      NOp   1
 Largest Abelian subgroup         C1      NOp   1
 Largest concise Abelian subgroup C1      NOp   1
                         Standard orientation:                         
 ---------------------------------------------------------------------
 Center     Atomic      Atomic             Coordinates (Angstroms)
 Number     Number       Type             X           Y           Z
 ---------------------------------------------------------------------
      1         78           0       -0.190178   -0.092358    0.097596
      2         35           0        0.598748    2.167453   -0.321630
      3         35           0        2.089724   -0.805744    0.542597
      4         17           0       -0.462990    0.412250    2.304256
      5         17           0       -0.930404   -2.212674    0.490944
      6         35           0        0.047934   -0.532783   -1.828391
      7          7           0       -2.057259    0.491856   -0.266828
      8          8           0       -2.497162    1.269676    0.758394
      9          8           0       -2.859316   -0.600216   -0.383804
 ---------------------------------------------------------------------
 Rotational constants (GHZ):      0.4350892      0.4173639      0.3700911
 General basis read from cards:  (5D, 7F)
 ======================================================================================================
                                       Pseudopotential Parameters
 ======================================================================================================
  Center     Atomic      Valence      Angular      Power
  Number     Number     Electrons     Momentum     of R      Exponent        Coefficient   SO-Coeffient
 ======================================================================================================
    1         78           18
                                      G and up 
                                                     1      728.9394056       -0.16192680    0.00000000
                                                     2      320.6567800    -1320.28738520    0.00000000
                                                     2       52.8680174     -298.31781350    0.00000000
                                                     2       12.0280128      -87.58370650    0.00000000
                                                     2        3.5238913       -8.14932740    0.00000000
                                      S - G
                                                     0      409.4437358        2.73342180    0.00000000
                                                     1      274.5419231       59.70243290    0.00000000
                                                     2      127.5658570      891.45895500    0.00000000
                                                     2       32.9036631      368.44676560    0.00000000
                                                     2        5.0593880      238.02630900    0.00000000
                                                     2        4.1506556     -107.05564540    0.00000000
                                      P - G
                                                     0      466.1728892        1.88785680    0.00000000
                                                     1      120.7888259       76.01386290    0.00000000
                                                     2       36.4118791      343.55111160    0.00000000
                                                     2        5.6985408      119.49117860    0.00000000
                                      D - G
                                                     0      249.5650763        2.93436780    0.00000000
                                                     1      126.6678585       59.33065710    0.00000000
                                                     2       63.1430586      452.44451940    0.00000000
                                                     2       17.9059470      210.47694790    0.00000000
                                                     2        4.2239373       58.62541120    0.00000000
                                      F - G
                                                     0      121.8158799        3.95342530    0.00000000
                                                     1       60.8757030       53.85551820    0.00000000
                                                     2       31.4767147      247.43051330    0.00000000
                                                     2        9.8811751      127.81879760    0.00000000
                                                     2        2.7319874       15.37720460    0.00000000
    2         35
                                   No pseudopotential on this center.
    3         35
                                   No pseudopotential on this center.
    4         17
                                   No pseudopotential on this center.
    5         17
                                   No pseudopotential on this center.
    6         35
                                   No pseudopotential on this center.
    7          7
                                   No pseudopotential on this center.
    8          8
                                   No pseudopotential on this center.
    9          8
                                   No pseudopotential on this center.
 ======================================================================================================
 There are   212 symmetry adapted cartesian basis functions of A   symmetry.
 There are   196 symmetry adapted basis functions of A   symmetry.
   196 basis functions,   432 primitive gaussians,   212 cartesian basis functions
    91 alpha electrons       91 beta electrons
       nuclear repulsion energy      2376.5856333747 Hartrees.
 NAtoms=    9 NActive=    9 NUniq=    9 SFac= 1.00D+00 NAtFMM=   60 NAOKFM=F Big=F
 Integral buffers will be    131072 words long.
 Raffenetti 2 integral format.
 Two-electron integral symmetry is turned on.
 ------------------------------------------------------------------------------
 Polarizable Continuum Model (PCM)
 =================================
 Model                : PCM (using non-symmetric T matrix).
 Atomic radii         : UFF (Universal Force Field).
 Polarization charges : Total charges.
 Charge compensation  : None.
 Solution method      : On-the-fly selection.
 Cavity type          : Scaled VdW (van der Waals Surface) (Alpha=1.100).
 Cavity algorithm     : GePol (No added spheres)
                        Default sphere list used, NSphG=    9.
                        Lebedev-Laikov grids with approx.  5.0 points / Ang**2.
                        Smoothing algorithm: Karplus/York (Gamma=1.0000).
                        Polarization charges: spherical gaussians, with
                                              point-specific exponents (IZeta= 3).
                        Self-potential: point-specific (ISelfS= 7).
                        Self-field    : sphere-specific E.n sum rule (ISelfD= 2).
 1st derivatives      : Analytical E(r).r(x)/FMM algorithm (CHGder, D1EAlg=3).
                        Cavity 1st derivative terms included.
 Solvent              : Water, Eps=  78.355300 Eps(inf)=   1.777849
 ------------------------------------------------------------------------------
 Spheres list:
 ISph  on   Nord     Re0    Alpha      Xe            Ye            Ze
    1  Pt      1    1.3770  1.100     -0.190178     -0.092358      0.097596
    2  Br      2    2.0945  1.100      0.598748      2.167453     -0.321630
    3  Br      3    2.0945  1.100      2.089724     -0.805744      0.542597
    4  Cl      4    1.9735  1.100     -0.462990      0.412250      2.304256
    5  Cl      5    1.9735  1.100     -0.930404     -2.212674      0.490944
    6  Br      6    2.0945  1.100      0.047934     -0.532783     -1.828391
    7   N      7    1.8300  1.100     -2.057259      0.491856     -0.266828
    8   O      8    1.7500  1.100     -2.497162      1.269676      0.758394
    9   O      9    1.7500  1.100     -2.859316     -0.600216     -0.383804
 ------------------------------------------------------------------------------
 One-electron integrals computed using PRISM.
   1 Symmetry operations used in ECPInt.
 ECPInt:  NShTT=    3081 NPrTT=   16147 LenC2=    2838 LenP2D=   10275.
 LDataN:  DoStor=T MaxTD1= 6 Len=  172
 NBasis=   196 RedAO= T EigKep=  2.46D-03  NBF=   196
 NBsUse=   196 1.00D-06 EigRej= -1.00D+00 NBFU=   196
 Defaulting to unpruned grid for atomic number  78.
 ExpMin= 2.90D-02 ExpMax= 1.13D+05 ExpMxC= 1.70D+04 IAcc=3 IRadAn=         5 AccDes= 0.00D+00
 Harris functional with IExCor=  402 and IRadAn=       5 diagonalized for initial guess.
 HarFok:  IExCor=  402 AccDes= 0.00D+00 IRadAn=         5 IDoV= 1 UseB2=F ITyADJ=14
 ICtDFT=  3500011 ScaDFX=  1.000000  1.000000  1.000000  1.000000
 Defaulting to unpruned grid for atomic number  78.
 Defaulting to unpruned grid for atomic number  78.
 Defaulting to unpruned grid for atomic number  78.
 Defaulting to unpruned grid for atomic number  78.
 Defaulting to unpruned grid for atomic number  78.
 Defaulting to unpruned grid for atomic number  78.
 Defaulting to unpruned grid for atomic number  78.
 Defaulting to unpruned grid for atomic number  78.
 FoFCou: FMM=F IPFlag=           0 FMFlag=      100000 FMFlg1=           0
         NFxFlg=           0 DoJE=T BraDBF=F KetDBF=T FulRan=T
         wScrn=  0.000000 ICntrl=     500 IOpCl=  0 I1Cent=   200000004 NGrid=           0
         NMat0=    1 NMatS0=      1 NMatT0=    0 NMatD0=    1 NMtDS0=    0 NMtDT0=    0
 Petite list used in FoFCou.
 Keep R1 ints in memory in canonical form, NReq=192067623.
 Requested convergence on RMS density matrix=1.00D-08 within 128 cycles.
 Requested convergence on MAX density matrix=1.00D-06.
 Requested convergence on             energy=1.00D-06.
 No special actions if energy rises.
 Defaulting to unpruned grid for atomic number  78.
 Defaulting to unpruned grid for atomic number  78.
 Defaulting to unpruned grid for atomic number  78.
 Defaulting to unpruned grid for atomic number  78.
 Defaulting to unpruned grid for atomic number  78.
 Defaulting to unpruned grid for atomic number  78.
 Defaulting to unpruned grid for atomic number  78.
 Defaulting to unpruned grid for atomic number  78.
 Inv3:  Mode=1 IEnd=     6447468.
 Iteration    1 A*A^-1 deviation from unit magnitude is 5.77D-15 for     39.
 Iteration    1 A*A^-1 deviation from orthogonality  is 5.31D-15 for   1298    675.
 Iteration    1 A^-1*A deviation from unit magnitude is 5.55D-15 for    720.
 Iteration    1 A^-1*A deviation from orthogonality  is 8.12D-15 for   1346    315.
 EnCoef did     3 forward-backward iterations
 EnCoef did   100 forward-backward iterations
 Error on total polarization charges =  0.01699
 SCF Done:  E(RB3LYP) =  -8966.10423455     A.U. after   19 cycles
            NFock= 19  Conv=0.56D-08     -V/T= 2.0104

 **********************************************************************

            Population analysis using the SCF density.

 **********************************************************************

 Orbital symmetries:
       Occupied  (A) (A) (A) (A) (A) (A) (A) (A) (A) (A) (A) (A)
                 (A) (A) (A) (A) (A) (A) (A) (A) (A) (A) (A) (A)
                 (A) (A) (A) (A) (A) (A) (A) (A) (A) (A) (A) (A)
                 (A) (A) (A) (A) (A) (A) (A) (A) (A) (A) (A) (A)
                 (A) (A) (A) (A) (A) (A) (A) (A) (A) (A) (A) (A)
                 (A) (A) (A) (A) (A) (A) (A) (A) (A) (A) (A) (A)
                 (A) (A) (A) (A) (A) (A) (A) (A) (A) (A) (A) (A)
                 (A) (A) (A) (A) (A) (A) (A)
       Virtual   (A) (A) (A) (A) (A) (A) (A) (A) (A) (A) (A) (A)
                 (A) (A) (A) (A) (A) (A) (A) (A) (A) (A) (A) (A)
                 (A) (A) (A) (A) (A) (A) (A) (A) (A) (A) (A) (A)
                 (A) (A) (A) (A) (A) (A) (A) (A) (A) (A) (A) (A)
                 (A) (A) (A) (A) (A) (A) (A) (A) (A) (A) (A) (A)
                 (A) (A) (A) (A) (A) (A) (A) (A) (A) (A) (A) (A)
                 (A) (A) (A) (A) (A) (A) (A) (A) (A) (A) (A) (A)
                 (A) (A) (A) (A) (A) (A) (A) (A) (A) (A) (A) (A)
                 (A) (A) (A) (A) (A) (A) (A) (A) (A)
 The electronic state is 1-A.
 Alpha  occ. eigenvalues -- -482.74783-482.74729-482.74689-101.44590-101.41859
 Alpha  occ. eigenvalues --  -62.43332 -62.42901 -62.42861 -56.26467 -56.26182
 Alpha  occ. eigenvalues --  -56.26173 -56.26092 -56.26052 -56.25796 -56.25795
 Alpha  occ. eigenvalues --  -56.25756 -56.25752 -19.13328 -19.13245 -14.48058
 Alpha  occ. eigenvalues --   -9.40004  -9.37334  -8.65626  -8.64680  -8.64639
 Alpha  occ. eigenvalues --   -7.16820  -7.15955  -7.15932  -7.13995  -7.13367
 Alpha  occ. eigenvalues --   -7.13338  -6.49076  -6.47885  -6.47847  -6.47656
 Alpha  occ. eigenvalues --   -6.47626  -6.46808  -6.46800  -6.46769  -6.46755
 Alpha  occ. eigenvalues --   -4.02581  -2.60655  -2.60123  -2.60098  -2.59337
 Alpha  occ. eigenvalues --   -2.59298  -2.59034  -2.59027  -2.58997  -2.58985
 Alpha  occ. eigenvalues --   -2.58981  -2.58979  -2.58181  -2.58180  -2.58138
 Alpha  occ. eigenvalues --   -2.58138  -2.25214  -2.24009  -2.23631  -1.08059
 Alpha  occ. eigenvalues --   -0.92076  -0.79575  -0.75861  -0.73364  -0.72957
 Alpha  occ. eigenvalues --   -0.72309  -0.64311  -0.49001  -0.46865  -0.45624
 Alpha  occ. eigenvalues --   -0.44400  -0.44138  -0.41684  -0.40939  -0.38191
 Alpha  occ. eigenvalues --   -0.36175  -0.32418  -0.31128  -0.28499  -0.27089
 Alpha  occ. eigenvalues --   -0.26205  -0.25661  -0.25366  -0.25209  -0.24918
 Alpha  occ. eigenvalues --   -0.24702  -0.24370  -0.23700  -0.22763  -0.21355
 Alpha  occ. eigenvalues --   -0.21187
 Alpha virt. eigenvalues --   -0.12202  -0.06814  -0.02590   0.05590   0.05877
 Alpha virt. eigenvalues --    0.06097   0.15666   0.19982   0.21065   0.25053
 Alpha virt. eigenvalues --    0.26952   0.27469   0.35960   0.36738   0.37762
 Alpha virt. eigenvalues --    0.40714   0.42241   0.45062   0.46444   0.52370
 Alpha virt. eigenvalues --    0.53945   0.54327   0.54679   0.56249   0.56329
 Alpha virt. eigenvalues --    0.56759   0.57151   0.58127   0.59758   0.60957
 Alpha virt. eigenvalues --    0.61983   0.63622   0.63942   0.65402   0.67490
 Alpha virt. eigenvalues --    0.68731   0.69897   0.71078   0.72906   0.74226
 Alpha virt. eigenvalues --    0.76562   0.78827   0.79593   0.82019   0.82288
 Alpha virt. eigenvalues --    0.83478   0.84221   0.87924   0.89429   0.92610
 Alpha virt. eigenvalues --    0.93359   0.94712   0.96425   0.97593   1.00125
 Alpha virt. eigenvalues --    1.02130   1.03928   1.05971   1.07483   1.08411
 Alpha virt. eigenvalues --    1.10081   1.11842   1.13534   1.16544   1.18434
 Alpha virt. eigenvalues --    1.20810   1.22889   1.25876   1.28755   1.32697
 Alpha virt. eigenvalues --    1.45645   1.45952   1.49874   1.55612   1.98395
 Alpha virt. eigenvalues --    2.01502   2.07715   2.30650   2.34840   2.66817
 Alpha virt. eigenvalues --    2.67210   2.68336   2.70746   2.76490   2.99122
 Alpha virt. eigenvalues --    3.02783   3.22982   3.42755   3.44229   3.44845
 Alpha virt. eigenvalues --    3.45684   3.46781   3.47599   3.50850   3.51682
 Alpha virt. eigenvalues --    3.54240   3.57234   3.59233   3.63001   3.65959
 Alpha virt. eigenvalues --    3.70197   3.76606   3.80003   3.84263   8.30745
          Condensed to atoms (all electrons):
               1          2          3          4          5          6
     1  Pt  17.762392   0.207031   0.207308   0.280833   0.233124  -0.473300
     2  Br   0.207031  35.049616  -0.021764  -0.023629  -0.003251  -0.069400
     3  Br   0.207308  -0.021764  34.994027  -0.022123  -0.024175  -0.024539
     4  Cl   0.280833  -0.023629  -0.022123  17.118609  -0.019836  -0.014121
     5  Cl   0.233124  -0.003251  -0.024175  -0.019836  17.086542  -0.049147
     6  Br  -0.473300  -0.069400  -0.024539  -0.014121  -0.049147  36.242709
     7  N    0.035262  -0.025022  -0.004734  -0.011722  -0.018962  -0.101692
     8  O   -0.009546   0.000959   0.000101  -0.019107   0.000407   0.002414
     9  O   -0.002058   0.000541   0.000102   0.000465  -0.025555  -0.001301
               7          8          9
     1  Pt   0.035262  -0.009546  -0.002058
     2  Br  -0.025022   0.000959   0.000541
     3  Br  -0.004734   0.000101   0.000102
     4  Cl  -0.011722  -0.019107   0.000465
     5  Cl  -0.018962   0.000407  -0.025555
     6  Br  -0.101692   0.002414  -0.001301
     7  N    6.768362   0.182941   0.169185
     8  O    0.182941   8.215046  -0.092918
     9  O    0.169185  -0.092918   8.237160
 Mulliken charges:
               1
     1  Pt  -0.241046
     2  Br  -0.115079
     3  Br  -0.104203
     4  Cl  -0.289369
     5  Cl  -0.179147
     6  Br  -0.511622
     7  N    0.006382
     8  O   -0.280296
     9  O   -0.285621
 Sum of Mulliken charges =  -2.00000
 Mulliken charges with hydrogens summed into heavy atoms:
               1
     1  Pt  -0.241046
     2  Br  -0.115079
     3  Br  -0.104203
     4  Cl  -0.289369
     5  Cl  -0.179147
     6  Br  -0.511622
     7  N    0.006382
     8  O   -0.280296
     9  O   -0.285621
 Electronic spatial extent (au):  <R**2>=           3411.5855
 Charge=             -2.0000 electrons
 Dipole moment (field-independent basis, Debye):
    X=              4.5774    Y=              0.4930    Z=             -3.6439  Tot=              5.8715
 Quadrupole moment (field-independent basis, Debye-Ang):
   XX=           -155.3453   YY=           -146.9617   ZZ=           -146.1767
   XY=             -0.6241   XZ=              3.2594   YZ=             -2.5368
 Traceless Quadrupole moment (field-independent basis, Debye-Ang):
   XX=             -5.8507   YY=              2.5329   ZZ=              3.3179
   XY=             -0.6241   XZ=              3.2594   YZ=             -2.5368
 Octapole moment (field-independent basis, Debye-Ang**2):
  XXX=             87.0431  YYY=             12.8424  ZZZ=            -48.0320  XYY=             21.8386
  XXY=              5.6260  XXZ=            -16.8823  XZZ=             18.3754  YZZ=              1.5698
  YYZ=            -14.0305  XYZ=              7.1984
 Hexadecapole moment (field-independent basis, Debye-Ang**3):
 XXXX=          -1596.8486 YYYY=          -1332.2236 ZZZZ=          -1128.1369 XXXY=             -9.2077
 XXXZ=             28.4382 YYYX=             -8.3846 YYYZ=             -2.4752 ZZZX=             26.6155
 ZZZY=             -9.5734 XXYY=           -479.6012 XXZZ=           -427.5428 YYZZ=           -403.3474
 XXYZ=            -17.2705 YYXZ=             12.4471 ZZXY=             -1.5962
 N-N= 2.376585633375D+03 E-N=-2.618615707662D+04  KE= 8.873453839647D+03
   1 Symmetry operations used in ECPInt.
 ECPInt:  NShTT=    3081 NPrTT=   16147 LenC2=    2838 LenP2D=   10275.
 LDataN:  DoStor=T MaxTD1= 7 Len=  274
 D1PCM: PCM CHGder 1st derivatives, ID1Alg=3 FixD1E=F DoIter=F DoCFld=F I1PDM=0.
 Calling FoFJK, ICntrl=      2127 FMM=F ISym2X=0 I1Cent= 0 IOpClX= 0 NMat=1 NMatS=1 NMatT=0.
 Defaulting to unpruned grid for atomic number  78.
 Defaulting to unpruned grid for atomic number  78.
 Defaulting to unpruned grid for atomic number  78.
 Defaulting to unpruned grid for atomic number  78.
 Defaulting to unpruned grid for atomic number  78.
 Defaulting to unpruned grid for atomic number  78.
 Defaulting to unpruned grid for atomic number  78.
 Defaulting to unpruned grid for atomic number  78.
 ***** Axes restored to original set *****
 -------------------------------------------------------------------
 Center     Atomic                   Forces (Hartrees/Bohr)
 Number     Number              X              Y              Z
 -------------------------------------------------------------------
      1       78          -0.270580205    0.017484681   -0.027629474
      2       35          -0.003557106    0.000114977   -0.039073217
      3       35          -0.004796004    0.038085602    0.001630964
      4       17          -0.065616356    0.007674744    0.002850725
      5       17          -0.005742383    0.011308338    0.053461490
      6       35           0.367792075    0.002107363    0.001483891
      7        7          -0.136184815   -0.109736177    0.112826965
      8        8           0.100294905    0.017747472   -0.006401333
      9        8           0.018389888    0.015213000   -0.099150012
 -------------------------------------------------------------------
 Cartesian Forces:  Max     0.367792075 RMS     0.102578083

 GradGradGradGradGradGradGradGradGradGradGradGradGradGradGradGradGradGrad
 Berny optimization.
 FormGI is forming the generalized inverse of G from B-inverse, IUseBI=4.
 Internal  Forces:  Max     0.367785721 RMS     0.069321901
 Search for a local minimum.
 Step number   1 out of a maximum of   47
 All quantities printed in internal units (Hartrees-Bohrs-Radians)
 Mixed Optimization -- RFO/linear search
 Second derivative matrix not updated -- first step.
 ITU=  0
     Eigenvalues ---    0.00230   0.04734   0.08487   0.09416   0.12615
     Eigenvalues ---    0.12615   0.12615   0.14009   0.16743   0.19509
     Eigenvalues ---    0.19509   0.20378   0.22001   0.22001   0.25000
     Eigenvalues ---    0.25000   0.25000   0.25000   0.52948   0.52948
     Eigenvalues ---    0.90956
 RFO step:  Lambda=-2.11579896D-01 EMin= 2.30000000D-03
 Linear search not attempted -- first point.
 Maximum step size (   0.300) exceeded in Quadratic search.
    -- Step size scaled by   0.582
 Iteration  1 RMS(Cart)=  0.07812170 RMS(Int)=  0.00259204
 Iteration  2 RMS(Cart)=  0.00250809 RMS(Int)=  0.00129786
 Iteration  3 RMS(Cart)=  0.00001275 RMS(Int)=  0.00129783
 Iteration  4 RMS(Cart)=  0.00000007 RMS(Int)=  0.00129783
 Variable       Old X    -DE/DX   Delta X   Delta X   Delta X     New X
                                 (Linear)    (Quad)   (Total)
    R1        4.59203   0.03907   0.00000   0.05591   0.05591   4.64794
    R2        4.59203   0.03809   0.00000   0.05450   0.05450   4.64653
    R3        4.30858   0.06562   0.00000   0.08847   0.08847   4.39705
    R4        4.30858   0.05346   0.00000   0.07208   0.07208   4.38065
    R5        3.76056   0.36779   0.00000   0.19088   0.19088   3.95143
    R6        3.76056   0.07678   0.00000   0.10756   0.10756   3.86812
    R7        2.57003  -0.09378   0.00000  -0.07363  -0.07363   2.49640
    R8        2.57003  -0.09313   0.00000  -0.07312  -0.07312   2.49690
    A1        1.57080   0.00174   0.00000  -0.00256  -0.00256   1.56823
    A2        1.57080  -0.00068   0.00000  -0.00197  -0.00199   1.56880
    A3        1.57080   0.00367   0.00000   0.00765   0.00768   1.57847
    A4        1.57080  -0.00999   0.00000  -0.01166  -0.01168   1.55911
    A5        1.57080  -0.01379   0.00000  -0.02051  -0.02052   1.55028
    A6        1.57080  -0.01406   0.00000  -0.01866  -0.01869   1.55211
    A7        1.57080   0.00354   0.00000   0.00356   0.00359   1.57439
    A8        1.57080  -0.00618   0.00000  -0.01150  -0.01176   1.55904
    A9        1.57080   0.00894   0.00000   0.01217   0.01218   1.58298
   A10        1.57080   0.00319   0.00000   0.00582   0.00572   1.57651
   A11        1.57080   0.02231   0.00000   0.03288   0.03282   1.60362
   A12        1.57080   0.00130   0.00000   0.00478   0.00482   1.57562
   A13        1.91063   0.03616   0.00000   0.05805   0.05466   1.96530
   A14        1.91063   0.04246   0.00000   0.06599   0.06262   1.97326
   A15        1.91063  -0.00139   0.00000   0.02319   0.01762   1.92825
   A16        3.14159  -0.01232   0.00000  -0.02122  -0.02125   3.12034
   A17        3.14159  -0.00825   0.00000  -0.01422  -0.01425   3.12734
   A18        3.14159   0.00298   0.00000   0.00568   0.00569   3.14728
   A19        3.14159  -0.00686   0.00000  -0.01346  -0.01332   3.12827
   A20        3.14159   0.00484   0.00000   0.00834   0.00831   3.14990
   A21        3.14159  -0.01025   0.00000  -0.01695  -0.01694   3.12466
    D1       -1.25054   0.02589   0.00000   0.05759   0.05866  -1.19189
    D2        2.93825  -0.02055   0.00000  -0.04677  -0.04774   2.89051
    D3        0.32025   0.02521   0.00000   0.05562   0.05652   0.37678
    D4       -1.77414  -0.02123   0.00000  -0.04873  -0.04988  -1.82402
    D5        1.89105   0.01903   0.00000   0.04413   0.04516   1.93621
    D6       -0.20334  -0.02741   0.00000  -0.06023  -0.06124  -0.26459
    D7       -2.82134   0.02222   0.00000   0.04995   0.05104  -2.77030
    D8        1.36745  -0.02421   0.00000  -0.05441  -0.05536   1.31209
         Item               Value     Threshold  Converged?
 Maximum Force            0.367786     0.000450     NO 
 RMS     Force            0.069322     0.000300     NO 
 Maximum Displacement     0.200611     0.001800     NO 
 RMS     Displacement     0.077041     0.001200     NO 
 Predicted change in Energy=-9.917928D-02
 GradGradGradGradGradGradGradGradGradGradGradGradGradGradGradGradGradGrad

                          Input orientation:                          
 ---------------------------------------------------------------------
 Center     Atomic      Atomic             Coordinates (Angstroms)
 Number     Number       Type             X           Y           Z
 ---------------------------------------------------------------------
      1         78           0       -0.328693    0.356403    0.015036
      2         35           0       -0.343480    0.327522   -2.444334
      3         35           0       -0.322318    2.814980   -0.020178
      4         17           0       -2.654869    0.410296    0.023755
      5         17           0       -0.345498    0.432948    2.331852
      6         35           0        1.762272    0.343519    0.018669
      7          7           0       -0.351173   -1.690394    0.015288
      8          8           0       -1.492375   -2.185681   -0.429103
      9          8           0       -0.047894   -2.211146    1.191165
 ---------------------------------------------------------------------
                    Distance matrix (angstroms):
                    1          2          3          4          5
     1  Pt   0.000000
     2  Br   2.459584   0.000000
     3  Br   2.458838   3.473389   0.000000
     4  Cl   2.326817   3.382430   3.350407   0.000000
     5  Cl   2.318141   4.777350   3.347635   3.265122   0.000000
     6  Br   2.091008   3.240498   3.233442   4.417649   3.130736
     7  N    2.046920   3.181475   4.505605   3.117689   3.142464
     8  O    2.830831   3.420132   5.151977   2.880203   3.974345
     9  O    2.838033   4.443991   5.177316   3.876999   2.894990
                    6          7          8          9
     6  Br   0.000000
     7  N    2.933165   0.000000
     8  O    4.146092   1.321036   0.000000
     9  O    3.343315   1.321305   2.170816   0.000000
 Stoichiometry    Br3Cl2NO2Pt(2-)
 Framework group  C1[X(Br3Cl2NO2Pt)]
 Deg. of freedom    21
 Full point group                 C1      NOp   1
 Largest Abelian subgroup         C1      NOp   1
 Largest concise Abelian subgroup C1      NOp   1
                         Standard orientation:                         
 ---------------------------------------------------------------------
 Center     Atomic      Atomic             Coordinates (Angstroms)
 Number     Number       Type             X           Y           Z
 ---------------------------------------------------------------------
      1         78           0       -0.169083   -0.125971    0.121622
      2         35           0        0.193900    2.253019   -0.386515
      3         35           0        2.248394   -0.414868    0.465461
      4         17           0       -0.379681    0.393319    2.379954
      5         17           0       -0.466103   -2.366450    0.637190
      6         35           0        0.053261   -0.608462   -1.900772
      7          7           0       -2.178954    0.146517   -0.154151
      8          8           0       -2.722239    0.902173    0.783377
      9          8           0       -2.843379   -0.989142   -0.275251
 ---------------------------------------------------------------------
 Rotational constants (GHZ):      0.4153662      0.3964254      0.3581353
 Basis read from rwf:  (5D, 7F)
 Pseudo-potential data read from rwf file.
 There are   212 symmetry adapted cartesian basis functions of A   symmetry.
 There are   196 symmetry adapted basis functions of A   symmetry.
   196 basis functions,   432 primitive gaussians,   212 cartesian basis functions
    91 alpha electrons       91 beta electrons
       nuclear repulsion energy      2324.2568864968 Hartrees.
 NAtoms=    9 NActive=    9 NUniq=    9 SFac= 1.00D+00 NAtFMM=   60 NAOKFM=F Big=F
 Integral buffers will be    131072 words long.
 Raffenetti 2 integral format.
 Two-electron integral symmetry is turned on.
 ------------------------------------------------------------------------------
 Polarizable Continuum Model (PCM)
 =================================
 Model                : PCM (using non-symmetric T matrix).
 Atomic radii         : UFF (Universal Force Field).
 Polarization charges : Total charges.
 Charge compensation  : None.
 Solution method      : On-the-fly selection.
 Cavity type          : Scaled VdW (van der Waals Surface) (Alpha=1.100).
 Cavity algorithm     : GePol (No added spheres)
                        Default sphere list used, NSphG=    9.
                        Lebedev-Laikov grids with approx.  5.0 points / Ang**2.
                        Smoothing algorithm: Karplus/York (Gamma=1.0000).
                        Polarization charges: spherical gaussians, with
                                              point-specific exponents (IZeta= 3).
                        Self-potential: point-specific (ISelfS= 7).
                        Self-field    : sphere-specific E.n sum rule (ISelfD= 2).
 1st derivatives      : Analytical E(r).r(x)/FMM algorithm (CHGder, D1EAlg=3).
                        Cavity 1st derivative terms included.
 Solvent              : Water, Eps=  78.355300 Eps(inf)=   1.777849
 ------------------------------------------------------------------------------
 Spheres list:
 ISph  on   Nord     Re0    Alpha      Xe            Ye            Ze
    1  Pt      1    1.3770  1.100     -0.169083     -0.125971      0.121622
    2  Br      2    2.0945  1.100      0.193900      2.253019     -0.386515
    3  Br      3    2.0945  1.100      2.248394     -0.414868      0.465461
    4  Cl      4    1.9735  1.100     -0.379681      0.393319      2.379954
    5  Cl      5    1.9735  1.100     -0.466103     -2.366450      0.637190
    6  Br      6    2.0945  1.100      0.053261     -0.608462     -1.900772
    7   N      7    1.8300  1.100     -2.178954      0.146517     -0.154151
    8   O      8    1.7500  1.100     -2.722239      0.902173      0.783377
    9   O      9    1.7500  1.100     -2.843379     -0.989142     -0.275251
 ------------------------------------------------------------------------------
 One-electron integrals computed using PRISM.
   1 Symmetry operations used in ECPInt.
 ECPInt:  NShTT=    3081 NPrTT=   16147 LenC2=    2821 LenP2D=   10170.
 LDataN:  DoStor=T MaxTD1= 6 Len=  172
 NBasis=   196 RedAO= T EigKep=  2.90D-03  NBF=   196
 NBsUse=   196 1.00D-06 EigRej= -1.00D+00 NBFU=   196
 Defaulting to unpruned grid for atomic number  78.
 Initial guess from the checkpoint file:  "/home/scr/diego/Gau-17889.chk"
 B after Tr=     0.000000    0.000000    0.000000
         Rot=    0.995932    0.013859   -0.024598   -0.085575 Ang=  10.34 deg.
 ExpMin= 2.90D-02 ExpMax= 1.13D+05 ExpMxC= 1.70D+04 IAcc=3 IRadAn=         5 AccDes= 0.00D+00
 Harris functional with IExCor=  402 and IRadAn=       5 diagonalized for initial guess.
 HarFok:  IExCor=  402 AccDes= 0.00D+00 IRadAn=         5 IDoV= 1 UseB2=F ITyADJ=14
 ICtDFT=  3500011 ScaDFX=  1.000000  1.000000  1.000000  1.000000
 Defaulting to unpruned grid for atomic number  78.
 Defaulting to unpruned grid for atomic number  78.
 Defaulting to unpruned grid for atomic number  78.
 Defaulting to unpruned grid for atomic number  78.
 Defaulting to unpruned grid for atomic number  78.
 Defaulting to unpruned grid for atomic number  78.
 Defaulting to unpruned grid for atomic number  78.
 Defaulting to unpruned grid for atomic number  78.
 FoFCou: FMM=F IPFlag=           0 FMFlag=      100000 FMFlg1=           0
         NFxFlg=           0 DoJE=T BraDBF=F KetDBF=T FulRan=T
         wScrn=  0.000000 ICntrl=     500 IOpCl=  0 I1Cent=   200000004 NGrid=           0
         NMat0=    1 NMatS0=      1 NMatT0=    0 NMatD0=    1 NMtDS0=    0 NMtDT0=    0
 Petite list used in FoFCou.
 Keep R1 ints in memory in canonical form, NReq=192164413.
 Requested convergence on RMS density matrix=1.00D-08 within 128 cycles.
 Requested convergence on MAX density matrix=1.00D-06.
 Requested convergence on             energy=1.00D-06.
 No special actions if energy rises.
 Defaulting to unpruned grid for atomic number  78.
 Defaulting to unpruned grid for atomic number  78.
 Defaulting to unpruned grid for atomic number  78.
 Defaulting to unpruned grid for atomic number  78.
 Defaulting to unpruned grid for atomic number  78.
 Defaulting to unpruned grid for atomic number  78.
 Defaulting to unpruned grid for atomic number  78.
 Defaulting to unpruned grid for atomic number  78.
 Inv3:  Mode=1 IEnd=     6732012.
 Iteration    1 A*A^-1 deviation from unit magnitude is 6.88D-15 for   1283.
 Iteration    1 A*A^-1 deviation from orthogonality  is 3.57D-15 for   1116    580.
 Iteration    1 A^-1*A deviation from unit magnitude is 6.66D-15 for    616.
 Iteration    1 A^-1*A deviation from orthogonality  is 9.82D-15 for    350    343.
 Error on total polarization charges =  0.01634
 SCF Done:  E(RB3LYP) =  -8966.20492387     A.U. after   15 cycles
            NFock= 15  Conv=0.42D-08     -V/T= 2.0105
   1 Symmetry operations used in ECPInt.
 ECPInt:  NShTT=    3081 NPrTT=   16147 LenC2=    2821 LenP2D=   10170.
 LDataN:  DoStor=T MaxTD1= 7 Len=  274
 D1PCM: PCM CHGder 1st derivatives, ID1Alg=3 FixD1E=F DoIter=F DoCFld=F I1PDM=0.
 Calling FoFJK, ICntrl=      2127 FMM=F ISym2X=0 I1Cent= 0 IOpClX= 0 NMat=1 NMatS=1 NMatT=0.
 Defaulting to unpruned grid for atomic number  78.
 Defaulting to unpruned grid for atomic number  78.
 Defaulting to unpruned grid for atomic number  78.
 Defaulting to unpruned grid for atomic number  78.
 Defaulting to unpruned grid for atomic number  78.
 Defaulting to unpruned grid for atomic number  78.
 Defaulting to unpruned grid for atomic number  78.
 Defaulting to unpruned grid for atomic number  78.
 ***** Axes restored to original set *****
 -------------------------------------------------------------------
 Center     Atomic                   Forces (Hartrees/Bohr)
 Number     Number              X              Y              Z
 -------------------------------------------------------------------
      1       78          -0.163689802    0.010074263   -0.022425667
      2       35          -0.001958777   -0.000731173   -0.027279968
      3       35          -0.002718601    0.026519443    0.001140314
      4       17          -0.041891492    0.003938664    0.001712264
      5       17          -0.002891846    0.004138827    0.034670287
      6       35           0.228232560   -0.001656996    0.001376736
      7        7          -0.119472376   -0.095668043    0.100839529
      8        8           0.083684359    0.026003867   -0.010159336
      9        8           0.020705975    0.027381147   -0.079874160
 -------------------------------------------------------------------
 Cartesian Forces:  Max     0.228232560 RMS     0.070156007

 GradGradGradGradGradGradGradGradGradGradGradGradGradGradGradGradGradGrad
 Berny optimization.
 Using GEDIIS/GDIIS optimizer.
 FormGI is forming the generalized inverse of G from B-inverse, IUseBI=4.
 Internal  Forces:  Max     0.228247818 RMS     0.044934729
 Search for a local minimum.
 Step number   2 out of a maximum of   47
 All quantities printed in internal units (Hartrees-Bohrs-Radians)
 Mixed Optimization -- RFO/linear search
 Update second derivatives using D2CorX and points    1    2
 DE= -1.01D-01 DEPred=-9.92D-02 R= 1.02D+00
 TightC=F SS=  1.41D+00  RLast= 3.34D-01 DXNew= 5.0454D-01 1.0022D+00
 Trust test= 1.02D+00 RLast= 3.34D-01 DXMaxT set to 5.05D-01
 ITU=  1  0
 Use linear search instead of GDIIS.
 Linear search step of   0.597 exceeds DXMaxT=   0.505 but not scaled.
 Quartic linear search produced a step of  2.00000.
 Iteration  1 RMS(Cart)=  0.13605039 RMS(Int)=  0.03285232
 Iteration  2 RMS(Cart)=  0.03023971 RMS(Int)=  0.00694764
 Iteration  3 RMS(Cart)=  0.00017731 RMS(Int)=  0.00694642
 Iteration  4 RMS(Cart)=  0.00000277 RMS(Int)=  0.00694642
 Iteration  5 RMS(Cart)=  0.00000005 RMS(Int)=  0.00694642
 Variable       Old X    -DE/DX   Delta X   Delta X   Delta X     New X
                                 (Linear)    (Quad)   (Total)
    R1        4.64794   0.02729   0.11181   0.00000   0.11181   4.75975
    R2        4.64653   0.02649   0.10899   0.00000   0.10899   4.75552
    R3        4.39705   0.04197   0.17694   0.00000   0.17694   4.57399
    R4        4.38065   0.03481   0.14415   0.00000   0.14415   4.52480
    R5        3.95143   0.22825   0.38175   0.00000   0.38175   4.33319
    R6        3.86812   0.04245   0.21513   0.00000   0.21513   4.08324
    R7        2.49640  -0.07860  -0.14726   0.00000  -0.14726   2.34913
    R8        2.49690  -0.07714  -0.14625   0.00000  -0.14625   2.35066
    A1        1.56823   0.00225  -0.00513   0.00000  -0.00512   1.56311
    A2        1.56880  -0.00023  -0.00398   0.00000  -0.00411   1.56470
    A3        1.57847   0.00205   0.01535   0.00000   0.01554   1.59401
    A4        1.55911  -0.00239  -0.02337   0.00000  -0.02353   1.53558
    A5        1.55028  -0.00646  -0.04103   0.00000  -0.04100   1.50928
    A6        1.55211  -0.00502  -0.03737   0.00000  -0.03752   1.51459
    A7        1.57439   0.00348   0.00719   0.00000   0.00737   1.58176
    A8        1.55904  -0.00321  -0.02351   0.00000  -0.02502   1.53402
    A9        1.58298   0.00363   0.02436   0.00000   0.02437   1.60735
   A10        1.57651   0.00128   0.01143   0.00000   0.01082   1.58733
   A11        1.60362   0.00509   0.06564   0.00000   0.06526   1.66888
   A12        1.57562  -0.00062   0.00964   0.00000   0.00988   1.58550
   A13        1.96530   0.01612   0.10933   0.00000   0.08781   2.05310
   A14        1.97326   0.01433   0.12525   0.00000   0.10390   2.07716
   A15        1.92825   0.01197   0.03523   0.00000   0.00786   1.93611
   A16        3.12034  -0.00277  -0.04250   0.00000  -0.04264   3.07770
   A17        3.12734  -0.00014  -0.02850   0.00000  -0.02865   3.09870
   A18        3.14728   0.00182   0.01137   0.00000   0.01143   3.15870
   A19        3.12827  -0.00325  -0.02664   0.00000  -0.02575   3.10252
   A20        3.14990   0.00282   0.01661   0.00000   0.01638   3.16628
   A21        3.12466  -0.00298  -0.03387   0.00000  -0.03375   3.09091
    D1       -1.19189   0.02219   0.11731   0.00000   0.12134  -1.07055
    D2        2.89051  -0.01937  -0.09548   0.00000  -0.09895   2.79156
    D3        0.37678   0.02189   0.11304   0.00000   0.11607   0.49285
    D4       -1.82402  -0.01967  -0.09975   0.00000  -0.10421  -1.92823
    D5        1.93621   0.01886   0.09031   0.00000   0.09406   2.03027
    D6       -0.26459  -0.02270  -0.12248   0.00000  -0.12622  -0.39081
    D7       -2.77030   0.02014   0.10207   0.00000   0.10625  -2.66406
    D8        1.31209  -0.02141  -0.11073   0.00000  -0.11404   1.19805
         Item               Value     Threshold  Converged?
 Maximum Force            0.228248     0.000450     NO 
 RMS     Force            0.044935     0.000300     NO 
 Maximum Displacement     0.350209     0.001800     NO 
 RMS     Displacement     0.144893     0.001200     NO 
 Predicted change in Energy=-7.598372D-02
 GradGradGradGradGradGradGradGradGradGradGradGradGradGradGradGradGradGrad

                          Input orientation:                          
 ---------------------------------------------------------------------
 Center     Atomic      Atomic             Coordinates (Angstroms)
 Number     Number       Type             X           Y           Z
 ---------------------------------------------------------------------
      1         78           0       -0.345144    0.383548    0.045977
      2         35           0       -0.391423    0.301652   -2.471018
      3         35           0       -0.334930    2.897998   -0.055375
      4         17           0       -2.760195    0.543277    0.070407
      5         17           0       -0.393999    0.614415    2.428742
      6         35           0        1.947595    0.349562    0.058185
      7          7           0       -0.408905   -1.776266    0.041301
      8          8           0       -1.400870   -2.322707   -0.471265
      9          8           0       -0.036156   -2.393030    1.055196
 ---------------------------------------------------------------------
                    Distance matrix (angstroms):
                    1          2          3          4          5
     1  Pt   0.000000
     2  Br   2.518752   0.000000
     3  Br   2.516513   3.546764   0.000000
     4  Cl   2.420451   3.482572   3.382668   0.000000
     5  Cl   2.394422   4.909733   3.374771   3.341510   0.000000
     6  Br   2.293023   3.445311   3.423060   4.711789   3.342566
     7  N    2.160759   3.260337   4.675848   3.302982   3.378676
     8  O    2.950578   3.450399   5.344619   3.217924   4.248590
     9  O    2.970418   4.452158   5.414574   4.124573   3.325568
                    6          7          8          9
     6  Br   0.000000
     7  N    3.173723   0.000000
     8  O    4.316660   1.243107   0.000000
     9  O    3.528613   1.243915   2.048774   0.000000
 Stoichiometry    Br3Cl2NO2Pt(2-)
 Framework group  C1[X(Br3Cl2NO2Pt)]
 Deg. of freedom    21
 Full point group                 C1      NOp   1
 Largest Abelian subgroup         C1      NOp   1
 Largest concise Abelian subgroup C1      NOp   1
                         Standard orientation:                         
 ---------------------------------------------------------------------
 Center     Atomic      Atomic             Coordinates (Angstroms)
 Number     Number       Type             X           Y           Z
 ---------------------------------------------------------------------
      1         78           0       -0.126099   -0.144067    0.185441
      2         35           0       -0.385547    2.197630   -0.705208
      3         35           0        2.370417    0.169633    0.228294
      4         17           0       -0.124716    0.730392    2.442408
      5         17           0        0.266033   -2.313375    1.120103
      6         35           0       -0.007840   -0.996579   -1.939928
      7          7           0       -2.280509   -0.308427    0.165765
      8          8           0       -2.925483    0.480544    0.877698
      9          8           0       -2.799404   -1.438925    0.172560
 ---------------------------------------------------------------------
 Rotational constants (GHZ):      0.3823389      0.3587609      0.3355597
 Basis read from rwf:  (5D, 7F)
 Pseudo-potential data read from rwf file.
 There are   212 symmetry adapted cartesian basis functions of A   symmetry.
 There are   196 symmetry adapted basis functions of A   symmetry.
   196 basis functions,   432 primitive gaussians,   212 cartesian basis functions
    91 alpha electrons       91 beta electrons
       nuclear repulsion energy      2231.3556469446 Hartrees.
 NAtoms=    9 NActive=    9 NUniq=    9 SFac= 1.00D+00 NAtFMM=   60 NAOKFM=F Big=F
 Integral buffers will be    131072 words long.
 Raffenetti 2 integral format.
 Two-electron integral symmetry is turned on.
 ------------------------------------------------------------------------------
 Polarizable Continuum Model (PCM)
 =================================
 Model                : PCM (using non-symmetric T matrix).
 Atomic radii         : UFF (Universal Force Field).
 Polarization charges : Total charges.
 Charge compensation  : None.
 Solution method      : On-the-fly selection.
 Cavity type          : Scaled VdW (van der Waals Surface) (Alpha=1.100).
 Cavity algorithm     : GePol (No added spheres)
                        Default sphere list used, NSphG=    9.
                        Lebedev-Laikov grids with approx.  5.0 points / Ang**2.
                        Smoothing algorithm: Karplus/York (Gamma=1.0000).
                        Polarization charges: spherical gaussians, with
                                              point-specific exponents (IZeta= 3).
                        Self-potential: point-specific (ISelfS= 7).
                        Self-field    : sphere-specific E.n sum rule (ISelfD= 2).
 1st derivatives      : Analytical E(r).r(x)/FMM algorithm (CHGder, D1EAlg=3).
                        Cavity 1st derivative terms included.
 Solvent              : Water, Eps=  78.355300 Eps(inf)=   1.777849
 ------------------------------------------------------------------------------
 Spheres list:
 ISph  on   Nord     Re0    Alpha      Xe            Ye            Ze
    1  Pt      1    1.3770  1.100     -0.126099     -0.144067      0.185441
    2  Br      2    2.0945  1.100     -0.385547      2.197630     -0.705208
    3  Br      3    2.0945  1.100      2.370417      0.169633      0.228294
    4  Cl      4    1.9735  1.100     -0.124716      0.730392      2.442408
    5  Cl      5    1.9735  1.100      0.266033     -2.313375      1.120103
    6  Br      6    2.0945  1.100     -0.007840     -0.996579     -1.939928
    7   N      7    1.8300  1.100     -2.280509     -0.308427      0.165765
    8   O      8    1.7500  1.100     -2.925483      0.480544      0.877698
    9   O      9    1.7500  1.100     -2.799404     -1.438925      0.172560
 ------------------------------------------------------------------------------
 One-electron integrals computed using PRISM.
   1 Symmetry operations used in ECPInt.
 ECPInt:  NShTT=    3081 NPrTT=   16147 LenC2=    2781 LenP2D=    9978.
 LDataN:  DoStor=T MaxTD1= 6 Len=  172
 NBasis=   196 RedAO= T EigKep=  4.46D-03  NBF=   196
 NBsUse=   196 1.00D-06 EigRej= -1.00D+00 NBFU=   196
 Defaulting to unpruned grid for atomic number  78.
 Initial guess from the checkpoint file:  "/home/scr/diego/Gau-17889.chk"
 B after Tr=     0.000000    0.000000    0.000000
         Rot=    0.989021    0.079941   -0.060282   -0.108691 Ang=  17.00 deg.
 ExpMin= 2.90D-02 ExpMax= 1.13D+05 ExpMxC= 1.70D+04 IAcc=3 IRadAn=         5 AccDes= 0.00D+00
 Harris functional with IExCor=  402 and IRadAn=       5 diagonalized for initial guess.
 HarFok:  IExCor=  402 AccDes= 0.00D+00 IRadAn=         5 IDoV= 1 UseB2=F ITyADJ=14
 ICtDFT=  3500011 ScaDFX=  1.000000  1.000000  1.000000  1.000000
 Defaulting to unpruned grid for atomic number  78.
 Defaulting to unpruned grid for atomic number  78.
 Defaulting to unpruned grid for atomic number  78.
 Defaulting to unpruned grid for atomic number  78.
 Defaulting to unpruned grid for atomic number  78.
 Defaulting to unpruned grid for atomic number  78.
 Defaulting to unpruned grid for atomic number  78.
 Defaulting to unpruned grid for atomic number  78.
 FoFCou: FMM=F IPFlag=           0 FMFlag=      100000 FMFlg1=           0
         NFxFlg=           0 DoJE=T BraDBF=F KetDBF=T FulRan=T
         wScrn=  0.000000 ICntrl=     500 IOpCl=  0 I1Cent=   200000004 NGrid=           0
         NMat0=    1 NMatS0=      1 NMatT0=    0 NMatD0=    1 NMtDS0=    0 NMtDT0=    0
 Petite list used in FoFCou.
 Keep R1 ints in memory in canonical form, NReq=192385595.
 Requested convergence on RMS density matrix=1.00D-08 within 128 cycles.
 Requested convergence on MAX density matrix=1.00D-06.
 Requested convergence on             energy=1.00D-06.
 No special actions if energy rises.
 Defaulting to unpruned grid for atomic number  78.
 Defaulting to unpruned grid for atomic number  78.
 Defaulting to unpruned grid for atomic number  78.
 Defaulting to unpruned grid for atomic number  78.
 Defaulting to unpruned grid for atomic number  78.
 Defaulting to unpruned grid for atomic number  78.
 Defaulting to unpruned grid for atomic number  78.
 Defaulting to unpruned grid for atomic number  78.
 Inv3:  Mode=1 IEnd=     7375872.
 Iteration    1 A*A^-1 deviation from unit magnitude is 5.77D-15 for     63.
 Iteration    1 A*A^-1 deviation from orthogonality  is 2.68D-15 for    362    113.
 Iteration    1 A^-1*A deviation from unit magnitude is 6.99D-15 for    190.
 Iteration    1 A^-1*A deviation from orthogonality  is 3.58D-13 for    794    755.
 Error on total polarization charges =  0.01542
 SCF Done:  E(RB3LYP) =  -8966.30252442     A.U. after   15 cycles
            NFock= 15  Conv=0.80D-08     -V/T= 2.0106
   1 Symmetry operations used in ECPInt.
 ECPInt:  NShTT=    3081 NPrTT=   16147 LenC2=    2781 LenP2D=    9978.
 LDataN:  DoStor=T MaxTD1= 7 Len=  274
 D1PCM: PCM CHGder 1st derivatives, ID1Alg=3 FixD1E=F DoIter=F DoCFld=F I1PDM=0.
 Calling FoFJK, ICntrl=      2127 FMM=F ISym2X=0 I1Cent= 0 IOpClX= 0 NMat=1 NMatS=1 NMatT=0.
 Defaulting to unpruned grid for atomic number  78.
 Defaulting to unpruned grid for atomic number  78.
 Defaulting to unpruned grid for atomic number  78.
 Defaulting to unpruned grid for atomic number  78.
 Defaulting to unpruned grid for atomic number  78.
 Defaulting to unpruned grid for atomic number  78.
 Defaulting to unpruned grid for atomic number  78.
 Defaulting to unpruned grid for atomic number  78.
 ***** Axes restored to original set *****
 -------------------------------------------------------------------
 Center     Atomic                   Forces (Hartrees/Bohr)
 Number     Number              X              Y              Z
 -------------------------------------------------------------------
      1       78          -0.058316674    0.001097099   -0.013505743
      2       35           0.000764735   -0.001231702   -0.008138884
      3       35           0.000334244    0.011213894    0.000191952
      4       17          -0.008438870   -0.003243359   -0.000095452
      5       17           0.000628811   -0.004363045    0.009133491
      6       35           0.075084377   -0.003316366    0.000453380
      7        7          -0.072016220   -0.053827420    0.061489149
      8        8           0.015061524    0.027051628   -0.043100441
      9        8           0.046898072    0.026619269   -0.006427451
 -------------------------------------------------------------------
 Cartesian Forces:  Max     0.075084377 RMS     0.031764414

 GradGradGradGradGradGradGradGradGradGradGradGradGradGradGradGradGradGrad
 Berny optimization.
 Using GEDIIS/GDIIS optimizer.
 FormGI is forming the generalized inverse of G from B-inverse, IUseBI=4.
 Internal  Forces:  Max     0.075158332 RMS     0.018457356
 Search for a local minimum.
 Step number   3 out of a maximum of   47
 All quantities printed in internal units (Hartrees-Bohrs-Radians)
 Mixed Optimization -- RFO/linear search
 Update second derivatives using D2CorX and points    2    3
 ITU=  0  1  0
 Use linear search instead of GDIIS.
     Eigenvalues ---    0.00230   0.01953   0.08474   0.09369   0.12496
     Eigenvalues ---    0.12624   0.12770   0.14097   0.16745   0.18441
     Eigenvalues ---    0.19517   0.20011   0.21296   0.22002   0.24867
     Eigenvalues ---    0.24998   0.25000   0.28631   0.46220   0.52949
     Eigenvalues ---    0.59853
 RFO step:  Lambda=-6.41906159D-02 EMin= 2.30000320D-03
 Quartic linear search produced a step of  0.49952.
 Iteration  1 RMS(Cart)=  0.07644969 RMS(Int)=  0.03976384
 Iteration  2 RMS(Cart)=  0.02977939 RMS(Int)=  0.01061312
 Iteration  3 RMS(Cart)=  0.00126875 RMS(Int)=  0.01053606
 Iteration  4 RMS(Cart)=  0.00000457 RMS(Int)=  0.01053606
 Iteration  5 RMS(Cart)=  0.00000009 RMS(Int)=  0.01053606
 Variable       Old X    -DE/DX   Delta X   Delta X   Delta X     New X
                                 (Linear)    (Quad)   (Total)
    R1        4.75975   0.00817   0.05585   0.01955   0.07541   4.83516
    R2        4.75552   0.01119   0.05444   0.03682   0.09126   4.84678
    R3        4.57399   0.00817   0.08839   0.00671   0.09510   4.66909
    R4        4.52480   0.00865   0.07201   0.01448   0.08649   4.61129
    R5        4.33319   0.07516   0.19070   0.03866   0.22936   4.56254
    R6        4.08324   0.00041   0.10746  -0.02927   0.07819   4.16144
    R7        2.34913  -0.00606  -0.07356   0.02612  -0.04744   2.30169
    R8        2.35066  -0.00440  -0.07305   0.02919  -0.04387   2.30679
    A1        1.56311   0.00187  -0.00256   0.02312   0.02057   1.58368
    A2        1.56470   0.00049  -0.00205   0.00602   0.00393   1.56862
    A3        1.59401  -0.00074   0.00776  -0.00842  -0.00067   1.59334
    A4        1.53558   0.00432  -0.01175   0.01773   0.00593   1.54151
    A5        1.50928   0.00460  -0.02048   0.03130   0.01078   1.52006
    A6        1.51459   0.00511  -0.01874   0.02624   0.00745   1.52204
    A7        1.58176   0.00205   0.00368   0.01412   0.01786   1.59962
    A8        1.53402   0.00146  -0.01250   0.01310  -0.00029   1.53373
    A9        1.60735  -0.00530   0.01217  -0.03348  -0.02134   1.58601
   A10        1.58733  -0.00045   0.00540  -0.00545  -0.00057   1.58675
   A11        1.66888  -0.01130   0.03260  -0.06677  -0.03429   1.63459
   A12        1.58550  -0.00146   0.00494  -0.01269  -0.00768   1.57781
   A13        2.05310  -0.02197   0.04386  -0.04377  -0.03655   2.01655
   A14        2.07716  -0.02644   0.05190  -0.06010  -0.04482   2.03234
   A15        1.93611   0.05510   0.00393   0.31527   0.28180   2.21791
   A16        3.07770   0.00699  -0.02130   0.04936   0.02802   3.10572
   A17        3.09870   0.00620  -0.01431   0.04085   0.02649   3.12519
   A18        3.15870  -0.00025   0.00571  -0.00239   0.00326   3.16197
   A19        3.10252   0.00125  -0.01286   0.01426   0.00157   3.10409
   A20        3.16628   0.00077   0.00818   0.00271   0.01080   3.17708
   A21        3.09091   0.00668  -0.01686   0.04585   0.02904   3.11995
    D1       -1.07055   0.01502   0.06061   0.20592   0.26829  -0.80226
    D2        2.79156  -0.01643  -0.04943  -0.22159  -0.27264   2.51891
    D3        0.49285   0.01585   0.05798   0.21379   0.27307   0.76592
    D4       -1.92823  -0.01559  -0.05206  -0.21372  -0.26787  -2.19610
    D5        2.03027   0.01643   0.04699   0.22149   0.27027   2.30054
    D6       -0.39081  -0.01502  -0.06305  -0.20602  -0.27066  -0.66147
    D7       -2.66406   0.01564   0.05307   0.21366   0.26865  -2.39541
    D8        1.19805  -0.01580  -0.05696  -0.21386  -0.27228   0.92577
         Item               Value     Threshold  Converged?
 Maximum Force            0.075158     0.000450     NO 
 RMS     Force            0.018457     0.000300     NO 
 Maximum Displacement     0.264873     0.001800     NO 
 RMS     Displacement     0.098919     0.001200     NO 
 Predicted change in Energy=-4.978640D-02
 GradGradGradGradGradGradGradGradGradGradGradGradGradGradGradGradGradGrad

                          Input orientation:                          
 ---------------------------------------------------------------------
 Center     Atomic      Atomic             Coordinates (Angstroms)
 Number     Number       Type             X           Y           Z
 ---------------------------------------------------------------------
      1         78           0       -0.381073    0.393287    0.058492
      2         35           0       -0.427678    0.236281   -2.494917
      3         35           0       -0.317903    2.954241   -0.067022
      4         17           0       -2.844554    0.580918    0.086536
      5         17           0       -0.425899    0.632504    2.486514
      6         35           0        2.029840    0.265030    0.076917
      7          7           0       -0.513980   -1.803628    0.131389
      8          8           0       -1.346788   -2.303995   -0.603182
      9          8           0        0.104009   -2.356191    1.027423
 ---------------------------------------------------------------------
                    Distance matrix (angstroms):
                    1          2          3          4          5
     1  Pt   0.000000
     2  Br   2.558656   0.000000
     3  Br   2.564806   3.646098   0.000000
     4  Cl   2.470775   3.553022   3.469900   0.000000
     5  Cl   2.440190   4.997164   3.452923   3.407704   0.000000
     6  Br   2.414393   3.557324   3.572741   4.884629   3.460036
     7  N    2.202138   3.326584   4.766039   3.334613   3.389559
     8  O    2.940366   3.297944   5.384712   3.322911   4.360881
     9  O    2.955294   4.405733   5.438429   4.266837   3.367795
                    6          7          8          9
     6  Br   0.000000
     7  N    3.279228   0.000000
     8  O    4.296981   1.218003   0.000000
     9  O    3.388670   1.220702   2.183211   0.000000
 Stoichiometry    Br3Cl2NO2Pt(2-)
 Framework group  C1[X(Br3Cl2NO2Pt)]
 Deg. of freedom    21
 Full point group                 C1      NOp   1
 Largest Abelian subgroup         C1      NOp   1
 Largest concise Abelian subgroup C1      NOp   1
                         Standard orientation:                         
 ---------------------------------------------------------------------
 Center     Atomic      Atomic             Coordinates (Angstroms)
 Number     Number       Type             X           Y           Z
 ---------------------------------------------------------------------
      1         78           0       -0.074979   -0.099500    0.251354
      2         35           0       -0.684677    2.026107   -1.035807
      3         35           0        2.420214    0.325705   -0.162701
      4         17           0        0.170497    1.229779    2.319563
      5         17           0        0.595251   -2.060263    1.540045
      6         35           0       -0.252556   -1.430867   -1.754941
      7          7           0       -2.219909   -0.392970    0.654545
      8          8           0       -2.824467    0.596696    1.026841
      9          8           0       -2.617327   -1.547072    0.669402
 ---------------------------------------------------------------------
 Rotational constants (GHZ):      0.3646799      0.3443233      0.3222281
 Basis read from rwf:  (5D, 7F)
 Pseudo-potential data read from rwf file.
 There are   212 symmetry adapted cartesian basis functions of A   symmetry.
 There are   196 symmetry adapted basis functions of A   symmetry.
   196 basis functions,   432 primitive gaussians,   212 cartesian basis functions
    91 alpha electrons       91 beta electrons
       nuclear repulsion energy      2182.8023026894 Hartrees.
 NAtoms=    9 NActive=    9 NUniq=    9 SFac= 1.00D+00 NAtFMM=   60 NAOKFM=F Big=F
 Integral buffers will be    131072 words long.
 Raffenetti 2 integral format.
 Two-electron integral symmetry is turned on.
 ------------------------------------------------------------------------------
 Polarizable Continuum Model (PCM)
 =================================
 Model                : PCM (using non-symmetric T matrix).
 Atomic radii         : UFF (Universal Force Field).
 Polarization charges : Total charges.
 Charge compensation  : None.
 Solution method      : On-the-fly selection.
 Cavity type          : Scaled VdW (van der Waals Surface) (Alpha=1.100).
 Cavity algorithm     : GePol (No added spheres)
                        Default sphere list used, NSphG=    9.
                        Lebedev-Laikov grids with approx.  5.0 points / Ang**2.
                        Smoothing algorithm: Karplus/York (Gamma=1.0000).
                        Polarization charges: spherical gaussians, with
                                              point-specific exponents (IZeta= 3).
                        Self-potential: point-specific (ISelfS= 7).
                        Self-field    : sphere-specific E.n sum rule (ISelfD= 2).
 1st derivatives      : Analytical E(r).r(x)/FMM algorithm (CHGder, D1EAlg=3).
                        Cavity 1st derivative terms included.
 Solvent              : Water, Eps=  78.355300 Eps(inf)=   1.777849
 ------------------------------------------------------------------------------
 Spheres list:
 ISph  on   Nord     Re0    Alpha      Xe            Ye            Ze
    1  Pt      1    1.3770  1.100     -0.074979     -0.099500      0.251354
    2  Br      2    2.0945  1.100     -0.684677      2.026107     -1.035807
    3  Br      3    2.0945  1.100      2.420214      0.325705     -0.162701
    4  Cl      4    1.9735  1.100      0.170497      1.229779      2.319563
    5  Cl      5    1.9735  1.100      0.595251     -2.060263      1.540045
    6  Br      6    2.0945  1.100     -0.252556     -1.430867     -1.754941
    7   N      7    1.8300  1.100     -2.219909     -0.392970      0.654545
    8   O      8    1.7500  1.100     -2.824467      0.596696      1.026841
    9   O      9    1.7500  1.100     -2.617327     -1.547072      0.669402
 ------------------------------------------------------------------------------
 One-electron integrals computed using PRISM.
   1 Symmetry operations used in ECPInt.
 ECPInt:  NShTT=    3081 NPrTT=   16147 LenC2=    2766 LenP2D=    9885.
 LDataN:  DoStor=T MaxTD1= 6 Len=  172
 NBasis=   196 RedAO= T EigKep=  5.42D-03  NBF=   196
 NBsUse=   196 1.00D-06 EigRej= -1.00D+00 NBFU=   196
 Defaulting to unpruned grid for atomic number  78.
 Initial guess from the checkpoint file:  "/home/scr/diego/Gau-17889.chk"
 B after Tr=     0.000000    0.000000    0.000000
         Rot=    0.992249    0.097805   -0.070648   -0.029765 Ang=  14.28 deg.
 ExpMin= 2.90D-02 ExpMax= 1.13D+05 ExpMxC= 1.70D+04 IAcc=3 IRadAn=         5 AccDes= 0.00D+00
 Harris functional with IExCor=  402 and IRadAn=       5 diagonalized for initial guess.
 HarFok:  IExCor=  402 AccDes= 0.00D+00 IRadAn=         5 IDoV= 1 UseB2=F ITyADJ=14
 ICtDFT=  3500011 ScaDFX=  1.000000  1.000000  1.000000  1.000000
 Defaulting to unpruned grid for atomic number  78.
 Defaulting to unpruned grid for atomic number  78.
 Defaulting to unpruned grid for atomic number  78.
 Defaulting to unpruned grid for atomic number  78.
 Defaulting to unpruned grid for atomic number  78.
 Defaulting to unpruned grid for atomic number  78.
 Defaulting to unpruned grid for atomic number  78.
 Defaulting to unpruned grid for atomic number  78.
 FoFCou: FMM=F IPFlag=           0 FMFlag=      100000 FMFlg1=           0
         NFxFlg=           0 DoJE=T BraDBF=F KetDBF=T FulRan=T
         wScrn=  0.000000 ICntrl=     500 IOpCl=  0 I1Cent=   200000004 NGrid=           0
         NMat0=    1 NMatS0=      1 NMatT0=    0 NMatD0=    1 NMtDS0=    0 NMtDT0=    0
 Petite list used in FoFCou.
 Keep R1 ints in memory in canonical form, NReq=192510171.
 Requested convergence on RMS density matrix=1.00D-08 within 128 cycles.
 Requested convergence on MAX density matrix=1.00D-06.
 Requested convergence on             energy=1.00D-06.
 No special actions if energy rises.
 Defaulting to unpruned grid for atomic number  78.
 Defaulting to unpruned grid for atomic number  78.
 Defaulting to unpruned grid for atomic number  78.
 Defaulting to unpruned grid for atomic number  78.
 Defaulting to unpruned grid for atomic number  78.
 Defaulting to unpruned grid for atomic number  78.
 Defaulting to unpruned grid for atomic number  78.
 Defaulting to unpruned grid for atomic number  78.
 Inv3:  Mode=1 IEnd=     7737708.
 Iteration    1 A*A^-1 deviation from unit magnitude is 7.55D-15 for    412.
 Iteration    1 A*A^-1 deviation from orthogonality  is 4.54D-15 for   1126    516.
 Iteration    1 A^-1*A deviation from unit magnitude is 6.33D-15 for    588.
 Iteration    1 A^-1*A deviation from orthogonality  is 8.45D-15 for    351    335.
 Error on total polarization charges =  0.01521
 SCF Done:  E(RB3LYP) =  -8966.34110765     A.U. after   16 cycles
            NFock= 16  Conv=0.17D-08     -V/T= 2.0106
   1 Symmetry operations used in ECPInt.
 ECPInt:  NShTT=    3081 NPrTT=   16147 LenC2=    2766 LenP2D=    9885.
 LDataN:  DoStor=T MaxTD1= 7 Len=  274
 D1PCM: PCM CHGder 1st derivatives, ID1Alg=3 FixD1E=F DoIter=F DoCFld=F I1PDM=0.
 Calling FoFJK, ICntrl=      2127 FMM=F ISym2X=0 I1Cent= 0 IOpClX= 0 NMat=1 NMatS=1 NMatT=0.
 Defaulting to unpruned grid for atomic number  78.
 Defaulting to unpruned grid for atomic number  78.
 Defaulting to unpruned grid for atomic number  78.
 Defaulting to unpruned grid for atomic number  78.
 Defaulting to unpruned grid for atomic number  78.
 Defaulting to unpruned grid for atomic number  78.
 Defaulting to unpruned grid for atomic number  78.
 Defaulting to unpruned grid for atomic number  78.
 ***** Axes restored to original set *****
 -------------------------------------------------------------------
 Center     Atomic                   Forces (Hartrees/Bohr)
 Number     Number              X              Y              Z
 -------------------------------------------------------------------
      1       78          -0.034479635   -0.007643350   -0.001995648
      2       35           0.001769371    0.000275383    0.001163501
      3       35           0.001876466    0.007333243   -0.001298174
      4       17           0.004523497   -0.003610876   -0.000420419
      5       17           0.001291201   -0.004324531   -0.001983142
      6       35           0.027803588   -0.002816945   -0.000382067
      7        7          -0.010317592    0.021628859    0.012654653
      8        8           0.013504234   -0.006699770    0.007680765
      9        8          -0.005971131   -0.004142013   -0.015419470
 -------------------------------------------------------------------
 Cartesian Forces:  Max     0.034479635 RMS     0.011328607

 GradGradGradGradGradGradGradGradGradGradGradGradGradGradGradGradGradGrad
 Berny optimization.
 Using GEDIIS/GDIIS optimizer.
 FormGI is forming the generalized inverse of G from B-inverse, IUseBI=4.
 Internal  Forces:  Max     0.027903633 RMS     0.007457535
 Search for a local minimum.
 Step number   4 out of a maximum of   47
 All quantities printed in internal units (Hartrees-Bohrs-Radians)
 Mixed Optimization -- RFO/linear search
 Update second derivatives using D2CorX and points    3    4
 DE= -3.86D-02 DEPred=-4.98D-02 R= 7.75D-01
 TightC=F SS=  1.41D+00  RLast= 8.76D-01 DXNew= 8.4853D-01 2.6266D+00
 Trust test= 7.75D-01 RLast= 8.76D-01 DXMaxT set to 8.49D-01
 ITU=  1  0  1  0
 Use linear search instead of GDIIS.
     Eigenvalues ---    0.00230   0.01187   0.08486   0.09394   0.12156
     Eigenvalues ---    0.12590   0.12633   0.13282   0.14890   0.16747
     Eigenvalues ---    0.19556   0.20318   0.21087   0.22007   0.24982
     Eigenvalues ---    0.25000   0.25172   0.28462   0.43252   0.52957
     Eigenvalues ---    0.60706
 RFO step:  Lambda=-9.76998096D-03 EMin= 2.29986003D-03
 Quartic linear search produced a step of  0.17163.
 Iteration  1 RMS(Cart)=  0.05506852 RMS(Int)=  0.00906557
 Iteration  2 RMS(Cart)=  0.00726041 RMS(Int)=  0.00673109
 Iteration  3 RMS(Cart)=  0.00003780 RMS(Int)=  0.00673102
 Iteration  4 RMS(Cart)=  0.00000009 RMS(Int)=  0.00673102
 Variable       Old X    -DE/DX   Delta X   Delta X   Delta X     New X
                                 (Linear)    (Quad)   (Total)
    R1        4.83516  -0.00121   0.01294  -0.02329  -0.01035   4.82481
    R2        4.84678   0.00743   0.01566   0.02360   0.03926   4.88604
    R3        4.66909  -0.00478   0.01632  -0.04450  -0.02818   4.64091
    R4        4.61129  -0.00242   0.01484  -0.03023  -0.01539   4.59590
    R5        4.56254   0.02790   0.03936  -0.00067   0.03870   4.60124
    R6        4.16144  -0.01043   0.01342  -0.07408  -0.06066   4.10078
    R7        2.30169  -0.01113  -0.00814  -0.01010  -0.01824   2.28346
    R8        2.30679  -0.01245  -0.00753  -0.01359  -0.02112   2.28567
    A1        1.58368  -0.00148   0.00353   0.00485   0.00839   1.59207
    A2        1.56862   0.00095   0.00067   0.01171   0.01228   1.58090
    A3        1.59334  -0.00192  -0.00011  -0.02212  -0.02218   1.57117
    A4        1.54151   0.00429   0.00102   0.01466   0.01556   1.55707
    A5        1.52006   0.00576   0.00185   0.03694   0.03873   1.55879
    A6        1.52204   0.00581   0.00128   0.02835   0.02951   1.55155
    A7        1.59962  -0.00051   0.00307  -0.00028   0.00293   1.60255
    A8        1.53373   0.00173  -0.00005   0.02110   0.02010   1.55384
    A9        1.58601  -0.00420  -0.00366  -0.02110  -0.02481   1.56119
   A10        1.58675  -0.00050  -0.00010  -0.00878  -0.00952   1.57724
   A11        1.63459  -0.00846  -0.00588  -0.04614  -0.05224   1.58235
   A12        1.57781  -0.00112  -0.00132  -0.01609  -0.01725   1.56057
   A13        2.01655   0.01103  -0.00627   0.07348   0.04370   2.06025
   A14        2.03234   0.00766  -0.00769   0.06117   0.02998   2.06232
   A15        2.21791  -0.01721   0.04836  -0.09086  -0.06625   2.15166
   A16        3.10572   0.00432   0.00481   0.03320   0.03790   3.14362
[...]
 Atom     2 has atomic number 35 and mass  78.91834
 Atom     3 has atomic number 35 and mass  78.91834
 Atom     4 has atomic number 17 and mass  34.96885
 Atom     5 has atomic number 17 and mass  34.96885
 Atom     6 has atomic number 35 and mass  78.91834
 Atom     7 has atomic number  7 and mass  14.00307
 Atom     8 has atomic number  8 and mass  15.99491
 Atom     9 has atomic number  8 and mass  15.99491
 Molecular mass:   547.65042 amu.
 Principal axes and moments of inertia in atomic units:
                           1         2         3
     Eigenvalues --  5080.144815346.790125605.67992
           X            0.99853   0.00122  -0.05413
           Y           -0.00129   1.00000  -0.00133
           Z            0.05413   0.00140   0.99853
 This molecule is an asymmetric top.
 Rotational symmetry number  1.
 Warning -- assumption of classical behavior for rotation
           may cause significant error
 Rotational temperatures (Kelvin)      0.01705     0.01620     0.01545
 Rotational constants (GHZ):           0.35525     0.33754     0.32195
 Zero-point vibrational energy      43232.7 (Joules/Mol)
                                   10.33287 (Kcal/Mol)
 Warning -- explicit consideration of  18 degrees of freedom as
           vibrations may cause significant error
 Vibrational temperatures:     69.73   109.34   117.70   130.56   140.18
          (Kelvin)            156.50   167.90   181.60   188.17   195.79
                              253.46   278.28   289.53   374.47   406.78
                              426.08   473.53   865.86  1196.60  2017.37
                             2359.97
 
 Zero-point correction=                           0.016466 (Hartree/Particle)
 Thermal correction to Energy=                    0.030325
 Thermal correction to Enthalpy=                  0.031269
 Thermal correction to Gibbs Free Energy=        -0.028835
 Sum of electronic and zero-point Energies=          -8966.332682
 Sum of electronic and thermal Energies=             -8966.318824
 Sum of electronic and thermal Enthalpies=           -8966.317879
 Sum of electronic and thermal Free Energies=        -8966.377984
 
                     E (Thermal)             CV                S
                      KCal/Mol        Cal/Mol-Kelvin    Cal/Mol-Kelvin
 Total                   19.029             39.504            126.501
 Electronic               0.000              0.000              0.000
 Translational            0.889              2.981             44.787
 Rotational               0.889              2.981             33.387
 Vibrational             17.252             33.543             48.327
 Vibration     1          0.595              1.978              4.879
 Vibration     2          0.599              1.965              3.992
 Vibration     3          0.600              1.962              3.847
 Vibration     4          0.602              1.956              3.644
 Vibration     5          0.603              1.951              3.505
 Vibration     6          0.606              1.942              3.291
 Vibration     7          0.608              1.936              3.154
 Vibration     8          0.611              1.927              3.003
 Vibration     9          0.612              1.923              2.934
 Vibration    10          0.614              1.917              2.858
 Vibration    11          0.628              1.872              2.369
 Vibration    12          0.635              1.849              2.195
 Vibration    13          0.638              1.838              2.122
 Vibration    14          0.668              1.745              1.660
 Vibration    15          0.682              1.706              1.517
 Vibration    16          0.690              1.681              1.439
 Vibration    17          0.712              1.617              1.264
 Vibration    18          0.960              1.028              0.447
                       Q            Log10(Q)             Ln(Q)
 Total Bot       0.183389D+14         13.263374         30.540048
 Total V=0       0.687718D+21         20.837410         47.979910
 Vib (Bot)       0.824173D-02         -2.083981         -4.798545
 Vib (Bot)    1  0.426627D+01          0.630049          1.450740
 Vib (Bot)    2  0.271154D+01          0.433217          0.997518
 Vib (Bot)    3  0.251670D+01          0.400832          0.922949
 Vib (Bot)    4  0.226550D+01          0.355165          0.817797
 Vib (Bot)    5  0.210740D+01          0.323747          0.745455
 Vib (Bot)    6  0.188343D+01          0.274950          0.633096
 Vib (Bot)    7  0.175255D+01          0.243671          0.561073
 Vib (Bot)    8  0.161667D+01          0.208621          0.480368
 Vib (Bot)    9  0.155844D+01          0.192690          0.443684
 Vib (Bot)   10  0.149580D+01          0.174873          0.402659
 Vib (Bot)   11  0.114164D+01          0.057528          0.132464
 Vib (Bot)   12  0.103350D+01          0.014309          0.032947
 Vib (Bot)   13  0.990409D+00         -0.004185         -0.009637
 Vib (Bot)   14  0.746176D+00         -0.127159         -0.292794
 Vib (Bot)   15  0.679050D+00         -0.168098         -0.387061
 Vib (Bot)   16  0.643572D+00         -0.191403         -0.440722
 Vib (Bot)   17  0.568025D+00         -0.245633         -0.565590
 Vib (Bot)   18  0.247662D+00         -0.606141         -1.395691
 Vib (V=0)       0.309068D+06          5.490055         12.641318
 Vib (V=0)    1  0.479547D+01          0.680831          1.567672
 Vib (V=0)    2  0.325726D+01          0.512852          1.180886
 Vib (V=0)    3  0.306589D+01          0.486556          1.120338
 Vib (V=0)    4  0.282002D+01          0.450253          1.036745
 Vib (V=0)    5  0.266590D+01          0.425844          0.980543
 Vib (V=0)    6  0.244867D+01          0.388931          0.895546
 Vib (V=0)    7  0.232248D+01          0.365952          0.842636
 Vib (V=0)    8  0.219222D+01          0.340885          0.784916
 Vib (V=0)    9  0.213668D+01          0.329740          0.759255
 Vib (V=0)   10  0.207715D+01          0.317468          0.730998
 Vib (V=0)   11  0.174633D+01          0.242126          0.557516
 Vib (V=0)   12  0.164809D+01          0.216981          0.499618
 Vib (V=0)   13  0.160946D+01          0.206681          0.475901
 Vib (V=0)   14  0.139821D+01          0.145572          0.335192
 Vib (V=0)   15  0.134327D+01          0.128164          0.295109
 Vib (V=0)   16  0.131498D+01          0.118918          0.273818
 Vib (V=0)   17  0.125674D+01          0.099245          0.228519
 Vib (V=0)   18  0.105798D+01          0.024476          0.056357
 Electronic      0.100000D+01          0.000000          0.000000
 Translational   0.503745D+09          8.702210         20.037580
 Rotational      0.441718D+07          6.645145         15.301012
 ***** Axes restored to original set *****
 -------------------------------------------------------------------
 Center     Atomic                   Forces (Hartrees/Bohr)
 Number     Number              X              Y              Z
 -------------------------------------------------------------------
      1       78          -0.000028972    0.000171683   -0.000020924
      2       35          -0.000033262    0.000020088   -0.000011879
      3       35          -0.000054374   -0.000113817   -0.000003841
      4       17          -0.000011842   -0.000070268    0.000049385
      5       17          -0.000024836    0.000001232    0.000023126
      6       35          -0.000002619    0.000068004   -0.000037058
      7        7           0.000041152   -0.000039900    0.000020566
      8        8           0.000030876   -0.000029875   -0.000021990
      9        8           0.000083877   -0.000007146    0.000002616
 -------------------------------------------------------------------
 Cartesian Forces:  Max     0.000171683 RMS     0.000053102
 FormGI is forming the generalized inverse of G from B-inverse, IUseBI=4.

 GradGradGradGradGradGradGradGradGradGradGradGradGradGradGradGradGradGrad
 Berny optimization.
 Internal  Forces:  Max     0.000116131 RMS     0.000031740
 Search for a local minimum.
 Step number   1 out of a maximum of    2
 All quantities printed in internal units (Hartrees-Bohrs-Radians)
 Second derivative matrix not updated -- analytic derivatives used.
 ITU=  0
     Eigenvalues ---    0.00212   0.04341   0.05122   0.05977   0.06487
     Eigenvalues ---    0.07352   0.07548   0.07961   0.08514   0.08863
     Eigenvalues ---    0.09419   0.09904   0.10507   0.10708   0.11783
     Eigenvalues ---    0.12937   0.15563   0.19334   0.32326   0.59440
     Eigenvalues ---    0.85028
 Angle between quadratic step and forces=  41.58 degrees.
 Linear search not attempted -- first point.
 Iteration  1 RMS(Cart)=  0.00075236 RMS(Int)=  0.00000019
 Iteration  2 RMS(Cart)=  0.00000024 RMS(Int)=  0.00000003
 Variable       Old X    -DE/DX   Delta X   Delta X   Delta X     New X
                                 (Linear)    (Quad)   (Total)
    R1        4.82463   0.00001   0.00000   0.00013   0.00013   4.82475
    R2        4.94435  -0.00012   0.00000  -0.00192  -0.00192   4.94243
    R3        4.57837  -0.00001   0.00000  -0.00007  -0.00007   4.57830
    R4        4.57834   0.00002   0.00000   0.00026   0.00026   4.57860
    R5        4.82484   0.00001   0.00000   0.00011   0.00011   4.82495
    R6        3.99463   0.00007   0.00000   0.00074   0.00074   3.99537
    R7        2.29446   0.00003   0.00000   0.00006   0.00006   2.29452
    R8        2.29453   0.00003   0.00000   0.00005   0.00005   2.29458
    A1        1.57384  -0.00004   0.00000  -0.00034  -0.00034   1.57350
    A2        1.58205   0.00002   0.00000   0.00022   0.00022   1.58227
    A3        1.55642  -0.00001   0.00000  -0.00013  -0.00013   1.55629
    A4        1.57539   0.00001   0.00000   0.00012   0.00012   1.57550
    A5        1.57860   0.00005   0.00000   0.00070   0.00070   1.57930
    A6        1.57488   0.00002   0.00000   0.00015   0.00015   1.57503
    A7        1.57315  -0.00005   0.00000  -0.00031  -0.00031   1.57284
    A8        1.56308  -0.00004   0.00000  -0.00065  -0.00065   1.56243
    A9        1.55525   0.00000   0.00000  -0.00014  -0.00014   1.55511
   A10        1.58157   0.00003   0.00000   0.00056   0.00056   1.58213
   A11        1.55911   0.00001   0.00000   0.00007   0.00007   1.55918
   A12        1.57620  -0.00001   0.00000  -0.00025  -0.00025   1.57595
   A13        2.05810  -0.00001   0.00000  -0.00001  -0.00001   2.05809
   A14        2.05693   0.00001   0.00000   0.00006   0.00006   2.05700
   A15        2.16807   0.00000   0.00000  -0.00005  -0.00005   2.16802
   A16        3.14872  -0.00002   0.00000  -0.00019  -0.00019   3.14853
   A17        3.14923  -0.00002   0.00000  -0.00023  -0.00023   3.14900
   A18        3.13846   0.00001   0.00000   0.00009   0.00009   3.13855
   A19        3.14519  -0.00002   0.00000  -0.00042  -0.00042   3.14476
   A20        3.14925  -0.00005   0.00000  -0.00056  -0.00056   3.14869
   A21        3.15175   0.00001   0.00000   0.00039   0.00039   3.15213
    D1       -0.79555   0.00000   0.00000   0.00090   0.00090  -0.79465
    D2        2.35937  -0.00001   0.00000   0.00062   0.00062   2.35999
    D3        0.78642   0.00002   0.00000   0.00112   0.00112   0.78754
    D4       -2.34184   0.00001   0.00000   0.00084   0.00084  -2.34100
    D5        2.34969  -0.00002   0.00000   0.00047   0.00047   2.35016
    D6       -0.77857  -0.00003   0.00000   0.00019   0.00019  -0.77839
    D7       -2.35199   0.00001   0.00000   0.00103   0.00103  -2.35096
    D8        0.80293   0.00000   0.00000   0.00075   0.00075   0.80368
         Item               Value     Threshold  Converged?
 Maximum Force            0.000116     0.000450     YES
 RMS     Force            0.000032     0.000300     YES
 Maximum Displacement     0.001833     0.001800     NO 
 RMS     Displacement     0.000752     0.001200     YES
 Predicted change in Energy=-2.475571D-07
 GradGradGradGradGradGradGradGradGradGradGradGradGradGradGradGradGradGrad

 1\1\GINC-NEQC17\Freq\RB3LYP\Gen\Br3Cl2N1O2Pt1(2-)\DIEGO\18-Aug-2021\0\
 \#N Geom=AllCheck Guess=TCheck SCRF=Check GenChk RB3LYP/ChkBas Freq\\E
 strutura 32\\-2,1\Pt,-0.4354125204,0.3882582048,0.0563796097\Br,-0.411
 725736,0.2405559362,-2.4923161031\Br,-0.2869840604,2.9966287495,-0.085
 4198785\Cl,-2.8552728017,0.5068809815,0.0543214315\Cl,-0.4501800174,0.
 5107218591,2.475993205\Br,2.1132934194,0.2369525458,0.0520593821\N,-0.
 5716290257,-1.7171762187,0.1868448182\O,-1.3661770897,-2.281456331,-0.
 5373813188\O,0.1400612017,-2.2829188473,0.9916682239\\Version=EM64L-G0
 9RevD.01\State=1-A\HF=-8966.3491485\RMSD=1.145e-09\RMSF=5.310e-05\Zero
 Point=0.0164665\Thermal=0.030325\Dipole=0.7988648,0.0636347,-0.7939909
 \DipoleDeriv=1.3243345,0.0014243,-0.1081098,-0.0435403,1.1309794,0.047
 8718,-0.1082878,0.002626,1.3206655,-0.0901541,0.0036284,-0.0068888,0.0
 351393,-0.1337115,-0.0887477,0.009237,-0.0140088,-1.2755291,-0.2180983
 ,-0.0594786,0.0105619,-0.0797611,-1.6338943,0.0722848,0.0087381,0.0551
 786,-0.2232389,-1.4941867,0.1128806,0.0267612,0.0351393,-0.1811385,0.0
 277722,0.0254516,0.0053052,-0.138135,-0.1424109,-0.0017783,0.0328867,-
 0.0146063,-0.1826116,-0.0492324,0.0356384,-0.1133441,-1.4931688,-1.276
 5553,0.0086974,0.0035234,0.0874292,-0.1313724,-0.0240874,-0.0133206,-0
 .0007578,-0.091559,1.3508281,0.2135844,0.8743932,0.3054606,3.2220653,-
 0.2991899,0.8749398,-0.2108917,1.3767759,-0.7928907,-0.6414898,-0.4031
 428,-0.5070681,-2.0466919,-0.1923162,-0.4332728,-0.3704878,-0.672874,-
 0.6608666,0.3625317,-0.429985,0.1818074,-2.0436245,0.5056447,-0.399123
 7,0.6463804,-0.8029366\Polar=214.9343525,2.1873037,224.7364617,7.06827
 4,-1.8894301,215.1344596\PG=C01 [X(Br3Cl2N1O2Pt1)]\NImag=0\\0.24056772
 ,-0.00235106,0.18052369,0.00907717,0.00234181,0.24060937,-0.01529995,0
 .00059899,0.00004550,0.01241795,-0.00033518,-0.01301702,-0.00474753,0.
 00056810,0.01457345,-0.00089183,-0.00334761,-0.06900215,0.00041015,0.0
 0320720,0.08363072,-0.01765524,-0.00182689,-0.00082579,-0.00050385,0.0
 0031942,0.00029425,0.01253721,-0.00163857,-0.05046755,0.00153840,0.000
 39441,-0.00246013,-0.00219477,0.00272732,0.06639549,-0.00077004,0.0017
 1329,-0.01753150,0.00054039,-0.00455715,-0.00042796,-0.00037118,-0.002
 31255,0.01260518,-0.08386807,0.00326949,-0.00076365,0.00047452,0.00072
 319,0.00221132,-0.00047965,-0.00191738,-0.00000510,0.09487416,0.002383
 28,-0.01377036,-0.00043168,0.00063373,-0.00014012,0.00024124,-0.004471
 58,-0.00074323,0.00011336,-0.00522791,0.01547537,0.00018733,0.00023662
 ,-0.01696833,0.00461463,-0.00030130,-0.00110597,0.00015567,0.00034245,
 0.00103596,0.00134849,0.00077825,0.01336579,-0.01685059,-0.00023996,0.
 00073506,0.00334194,0.00002260,0.00035548,0.00088580,-0.00065388,-0.00
 017789,0.00055701,-0.00048317,-0.00638873,0.01387144,0.00021122,-0.013
 61407,-0.00203395,0.00002259,0.00311662,-0.00087366,-0.00039249,-0.000
 95243,0.00467106,-0.00068704,0.00195320,-0.00021980,0.00031619,0.01567
 018,-0.00026832,-0.00316808,-0.08361696,0.00013939,-0.00070296,-0.0105
 9781,-0.00029953,0.00219937,-0.00114742,-0.00347345,0.00022805,0.00057
 719,0.00122649,0.00581559,0.09560947,-0.06903468,0.00344500,-0.0013320
 2,-0.00076116,0.00025763,-0.00365526,-0.00039723,0.00195960,0.00004921
 ,-0.01061418,0.00079435,0.00026580,-0.00116968,-0.00014610,0.00229258,
 0.08391041,0.00486614,-0.01310107,0.00022747,-0.00041015,0.00153181,-0
 .00031396,0.00440607,-0.00296658,-0.00034266,0.00066637,0.00312241,-0.
 00001733,0.00042805,0.00015586,-0.00065437,-0.00286477,0.01472562,-0.0
 0040212,-0.00059800,-0.01527255,-0.00659311,0.00012418,-0.00099034,0.0
 0031160,-0.00041404,-0.00017232,0.00005482,-0.00001687,0.00334274,0.00
 445179,-0.00065748,0.00049556,0.00096957,-0.00051716,0.01260508,-0.043
 75286,-0.00078327,0.01447484,-0.00066670,-0.00308130,0.00061770,0.0069
 2969,0.00115703,-0.00081273,-0.00093789,0.00146772,-0.00169755,-0.0003
 1726,0.00340215,-0.00015856,-0.00106184,-0.00269468,-0.00115670,0.5432
 8893,0.00012765,-0.06305818,-0.00022957,-0.00103599,-0.00411155,0.0013
 5437,0.00058867,0.02086410,-0.00053323,0.00165824,-0.00605143,-0.00039
 661,0.00041759,-0.00577061,-0.00160253,-0.00123308,-0.00398762,0.00097
 919,0.02695359,0.54272293,0.01448156,0.00072188,-0.04343928,-0.0011609
 2,0.00264562,-0.00099497,-0.00082228,-0.00113490,0.00690420,-0.0001543
 0,-0.00347197,-0.00040576,-0.00163944,-0.00132637,-0.00080495,0.000534
 07,0.00298459,-0.00069612,0.38765284,-0.02698117,0.55487449,0.00136994
 ,-0.00566857,-0.01133247,0.00063372,0.00067946,0.00053947,-0.00085042,
 -0.00610375,0.00110379,-0.00035421,0.00479879,0.00095819,0.00038101,-0
 .00097766,0.00037499,0.00003313,0.00011644,0.00044584,-0.27359655,-0.1
 5989436,-0.20080210,0.33487001,-0.01735432,-0.00666854,-0.01433136,-0.
 00091378,-0.00014927,0.00156626,0.00048644,-0.01485021,0.00180449,0.00
 126525,-0.00075652,-0.00043381,-0.00001903,0.00084612,-0.00024699,-0.0
 0039598,0.00065575,-0.00011942,-0.16521653,-0.23982758,-0.14106837,0.1
 7239838,0.21144405,-0.01011232,-0.00363564,0.00415851,0.00156491,0.004
 40092,-0.00053623,0.00042977,-0.00417536,-0.00045116,0.00039575,0.0015
 7761,-0.00025314,0.00053172,-0.00012205,0.00035612,0.00014615,-0.00080
 909,0.00037938,-0.19902983,-0.13472265,-0.23620269,0.29153982,0.147205
 55,0.29756032,0.00452373,0.00355627,-0.01007863,0.00036353,0.00084608,
 0.00011871,-0.00046632,0.00407521,0.00044356,0.00034830,0.00010478,0.0
 0055618,-0.00069967,-0.00174885,0.00016641,-0.00090477,-0.00451349,0.0
 0191831,-0.22988552,0.13241768,-0.19808943,-0.06248662,0.00974956,-0.0
 8546597,0.28920733,0.01409083,-0.00682690,0.01766641,0.00014210,0.0006
 5621,0.00036093,-0.00183697,-0.01481946,-0.00055661,0.00024979,0.00091
 069,0.00001153,0.00021160,-0.00140487,-0.00186808,-0.00181665,-0.00013
 618,0.00121961,0.13879529,-0.24078006,0.16763069,-0.00534874,0.0493062
 2,-0.00971929,-0.14448725,0.21309436,-0.01130143,0.00573574,0.00106289
 ,0.00043906,-0.00006899,0.00002470,0.00112750,0.00615139,-0.00081499,0
 .00038612,0.00098201,0.00041152,0.00090552,-0.00525334,-0.00087120,0.0
 0072991,-0.00055748,0.00030857,-0.19989000,0.16213220,-0.27923493,-0.0
 8282752,0.00562365,-0.06501111,0.29043085,-0.17474518,0.34412453\\0.00
 002897,-0.00017168,0.00002092,0.00003326,-0.00002009,0.00001188,0.0000
 5437,0.00011382,0.00000384,0.00001184,0.00007027,-0.00004938,0.0000248
 4,-0.00000123,-0.00002313,0.00000262,-0.00006800,0.00003706,-0.0000411
 5,0.00003990,-0.00002057,-0.00003088,0.00002987,0.00002199,-0.00008388
 ,0.00000715,-0.00000262\\\@


 NOBODY LOSES ALL THE TIME
 I HAD AN UNCLE NAMED
 SOL WHO WAS A BORN FAILURE AND
 NEARLY EVERYBODY SAID HE SHOULD HAVE GONE
 INTO VAUDEVILLE PERHAPS BECAUSE MY UNCLE SOL COULD
 SING MCCANN HE WAS A DIVER ON XMAS EVE LIKE HELL ITSELF WHICH
 MAY OR MAY NOT ACCOUNT FOR THE FACT THAT MY UNCLE
 SOL INDULGED IN THAT POSSIBLY MOST INEXCUSABLE
 OF ALL TO USE A HIGHFALOOTIN PHRASE
 LUXURIES THAT IS OR TO
 WIT FARMING AND BE
 IT NEEDLESSLY
 ADDED
 MY UNCLE SOL'S FARM     
 FAILED BECAUSE THE CHICKENS
 ATE THE VEGETABLES SO
 MY UNCLE SOL HAD A
 CHICKEN FARM TILL THE
 SKUNKS ATE THE CHICKENS WHEN 
 MY UNCLE SOL
 HAD A SKUNK FARM BUT
 THE SKUNKS CAUGHT COLD AND
 DIED AND SO
 MY UNCLE SOL IMITATED THE
 SKUNKS IN A SUBTLE MANNER
 OR BY DROWNING HIMSELF IN THE WATERTANK
 BUT SOMEBODY WHO'D GIVEN MY UNCLE SOL A VICTOR     
 VICTROLA AND RECORDS WHILE HE LIVED PRESENTED TO
 HIM UPON THE AUSPICIOUS OCCASION OF HIS DECEASE A
 SCRUMPTIOUS NOT TO MENTION SPLENDIFEROUS FUNERAL WITH
 TALL BOYS IN BLACK GLOVES AND FLOWERS AND EVERYTHING AND
 I REMEMBER WE ALL CRIED LIKE THE MISSOURI
 WHEN MY UNCLE SOL'S COFFIN LURCHED BECAUSE     
 SOMEBODY PRESSED A BUTTON
 (AND DOWN WENT
 MY UNCLE
 SOL
 AND STARTED A WORM FARM)
           E. E. CUMMINGS
 Job cpu time:       0 days  0 hours 15 minutes 17.3 seconds.
 File lengths (MBytes):  RWF=    112 Int=      0 D2E=      0 Chk=      7 Scr=      1
 Normal termination of Gaussian 09 at Wed Aug 18 04:44:35 2021.
