 Entering Gaussian System, Link 0=g09
 Input=estrutura33_D2O.com
 Output=estrutura33_D2O.log
 Initial command:
 /home/scr/programs/g09/l1.exe "/home/scr/diego/Gau-19260.inp" -scrdir="/home/scr/diego/"
 Entering Link 1 = /home/scr/programs/g09/l1.exe PID=     19262.
  
 Copyright (c) 1988,1990,1992,1993,1995,1998,2003,2009,2013,
            Gaussian, Inc.  All Rights Reserved.
  
 This is part of the Gaussian(R) 09 program.  It is based on
 the Gaussian(R) 03 system (copyright 2003, Gaussian, Inc.),
 the Gaussian(R) 98 system (copyright 1998, Gaussian, Inc.),
 the Gaussian(R) 94 system (copyright 1995, Gaussian, Inc.),
 the Gaussian 92(TM) system (copyright 1992, Gaussian, Inc.),
 the Gaussian 90(TM) system (copyright 1990, Gaussian, Inc.),
 the Gaussian 88(TM) system (copyright 1988, Gaussian, Inc.),
 the Gaussian 86(TM) system (copyright 1986, Carnegie Mellon
 University), and the Gaussian 82(TM) system (copyright 1983,
 Carnegie Mellon University). Gaussian is a federally registered
 trademark of Gaussian, Inc.
  
 This software contains proprietary and confidential information,
 including trade secrets, belonging to Gaussian, Inc.
  
 This software is provided under written license and may be
 used, copied, transmitted, or stored only in accord with that
 written license.
  
 The following legend is applicable only to US Government
 contracts under FAR:
  
                    RESTRICTED RIGHTS LEGEND
  
 Use, reproduction and disclosure by the US Government is
 subject to restrictions as set forth in subparagraphs (a)
 and (c) of the Commercial Computer Software - Restricted
 Rights clause in FAR 52.227-19.
  
 Gaussian, Inc.
 340 Quinnipiac St., Bldg. 40, Wallingford CT 06492
  
  
 ---------------------------------------------------------------
 Warning -- This program may not be used in any manner that
 competes with the business of Gaussian, Inc. or will provide
 assistance to any competitor of Gaussian, Inc.  The licensee
 of this program is prohibited from giving any competitor of
 Gaussian, Inc. access to this program.  By using this program,
 the user acknowledges that Gaussian, Inc. is engaged in the
 business of creating and licensing software in the field of
 computational chemistry and represents and warrants to the
 licensee that it is not a competitor of Gaussian, Inc. and that
 it will not use this program in any manner prohibited above.
 ---------------------------------------------------------------
  

 Cite this work as:
 Gaussian 09, Revision D.01,
 M. J. Frisch, G. W. Trucks, H. B. Schlegel, G. E. Scuseria, 
 M. A. Robb, J. R. Cheeseman, G. Scalmani, V. Barone, B. Mennucci, 
 G. A. Petersson, H. Nakatsuji, M. Caricato, X. Li, H. P. Hratchian, 
 A. F. Izmaylov, J. Bloino, G. Zheng, J. L. Sonnenberg, M. Hada, 
 M. Ehara, K. Toyota, R. Fukuda, J. Hasegawa, M. Ishida, T. Nakajima, 
 Y. Honda, O. Kitao, H. Nakai, T. Vreven, J. A. Montgomery, Jr., 
 J. E. Peralta, F. Ogliaro, M. Bearpark, J. J. Heyd, E. Brothers, 
 K. N. Kudin, V. N. Staroverov, T. Keith, R. Kobayashi, J. Normand, 
 K. Raghavachari, A. Rendell, J. C. Burant, S. S. Iyengar, J. Tomasi, 
 M. Cossi, N. Rega, J. M. Millam, M. Klene, J. E. Knox, J. B. Cross, 
 V. Bakken, C. Adamo, J. Jaramillo, R. Gomperts, R. E. Stratmann, 
 O. Yazyev, A. J. Austin, R. Cammi, C. Pomelli, J. W. Ochterski, 
 R. L. Martin, K. Morokuma, V. G. Zakrzewski, G. A. Voth, 
 P. Salvador, J. J. Dannenberg, S. Dapprich, A. D. Daniels, 
 O. Farkas, J. B. Foresman, J. V. Ortiz, J. Cioslowski, 
 and D. J. Fox, Gaussian, Inc., Wallingford CT, 2013.
 
 ******************************************
 Gaussian 09:  EM64L-G09RevD.01 24-Apr-2013
                18-Aug-2021 
 ******************************************
 %mem=15gb
 %nproc=8
 Will use up to    8 processors via shared memory.
 ------------------------------------------------------------
 #b3lyp/gen pseudo=read opt freq=noraman scrf=(solvent=water)
 ------------------------------------------------------------
 1/14=-1,18=20,19=15,26=3,38=1/1,3;
 2/9=110,12=2,17=6,18=5,40=1/2;
 3/5=7,11=2,16=1,17=8,25=1,30=1,70=2201,71=1,72=1,74=-5/1,2,3;
 4//1;
 5/5=2,38=5,53=1/2;
 6/7=2,8=2,9=2,10=2,28=1/1;
 7//1,2,3,16;
 1/14=-1,18=20,19=15,26=3/3(2);
 2/9=110/2;
 99//99;
 2/9=110/2;
 3/5=7,6=1,11=2,16=1,17=8,25=1,30=1,70=2205,71=1,72=1,74=-5,82=7/1,2,3;
 4/5=5,16=3,69=1/1;
 5/5=2,38=5,53=1/2;
 7//1,2,3,16;
 1/14=-1,18=20,19=15,26=3/3(-5);
 2/9=110/2;
 6/7=2,8=2,9=2,10=2,19=2,28=1/1;
 99/9=1/99;
 ------------
 Estrutura 33
 ------------
 Symbolic Z-matrix:
 Charge = -2 Multiplicity = 1
 Pt                   -0.31955   0.33835   0. 
 Br                   -0.31955   0.33835  -2.43 
 Br                    1.67045   0.33835   0. 
 Cl                   -0.31955   2.61835   0. 
 Br                   -0.31955   0.33835   2.43 
 Cl                   -0.31955  -1.65165   0. 
 N                    -2.30955   0.33835   0. 
 O                    -2.76288   1.46099  -0.61948 
 O                    -2.76288  -0.75947  -0.6625 
 

 GradGradGradGradGradGradGradGradGradGradGradGradGradGradGradGradGradGrad
 Berny optimization.
 Initialization pass.
                           ----------------------------
                           !    Initial Parameters    !
                           ! (Angstroms and Degrees)  !
 --------------------------                            --------------------------
 ! Name  Definition              Value          Derivative Info.                !
 --------------------------------------------------------------------------------
 ! R1    R(1,2)                  2.43           estimate D2E/DX2                !
 ! R2    R(1,3)                  1.99           estimate D2E/DX2                !
 ! R3    R(1,4)                  2.28           estimate D2E/DX2                !
 ! R4    R(1,5)                  2.43           estimate D2E/DX2                !
 ! R5    R(1,6)                  1.99           estimate D2E/DX2                !
 ! R6    R(1,7)                  1.99           estimate D2E/DX2                !
 ! R7    R(7,8)                  1.36           estimate D2E/DX2                !
 ! R8    R(7,9)                  1.36           estimate D2E/DX2                !
 ! A1    A(2,1,3)               90.0            estimate D2E/DX2                !
 ! A2    A(2,1,4)               90.0            estimate D2E/DX2                !
 ! A3    A(2,1,6)               90.0            estimate D2E/DX2                !
 ! A4    A(2,1,7)               90.0            estimate D2E/DX2                !
 ! A5    A(3,1,4)               90.0            estimate D2E/DX2                !
 ! A6    A(3,1,5)               90.0            estimate D2E/DX2                !
 ! A7    A(3,1,6)               90.0            estimate D2E/DX2                !
 ! A8    A(4,1,5)               90.0            estimate D2E/DX2                !
 ! A9    A(4,1,7)               90.0            estimate D2E/DX2                !
 ! A10   A(5,1,6)               90.0            estimate D2E/DX2                !
 ! A11   A(5,1,7)               90.0            estimate D2E/DX2                !
 ! A12   A(6,1,7)               90.0            estimate D2E/DX2                !
 ! A13   A(1,7,8)              109.4712         estimate D2E/DX2                !
 ! A14   A(1,7,9)              109.4712         estimate D2E/DX2                !
 ! A15   A(8,7,9)              109.4713         estimate D2E/DX2                !
 ! A16   L(2,1,5,3,-1)         180.0            estimate D2E/DX2                !
 ! A17   L(3,1,7,2,-1)         180.0            estimate D2E/DX2                !
 ! A18   L(4,1,6,2,-1)         180.0            estimate D2E/DX2                !
 ! A19   L(2,1,5,3,-2)         180.0            estimate D2E/DX2                !
 ! A20   L(3,1,7,2,-2)         180.0            estimate D2E/DX2                !
 ! A21   L(4,1,6,2,-2)         180.0            estimate D2E/DX2                !
 ! D1    D(2,1,7,8)            -61.1097         estimate D2E/DX2                !
 ! D2    D(2,1,7,9)             58.8903         estimate D2E/DX2                !
 ! D3    D(4,1,7,8)             28.8903         estimate D2E/DX2                !
 ! D4    D(4,1,7,9)            148.8903         estimate D2E/DX2                !
 ! D5    D(5,1,7,8)            118.8903         estimate D2E/DX2                !
 ! D6    D(5,1,7,9)           -121.1097         estimate D2E/DX2                !
 ! D7    D(6,1,7,8)           -151.1097         estimate D2E/DX2                !
 ! D8    D(6,1,7,9)            -31.1097         estimate D2E/DX2                !
 --------------------------------------------------------------------------------
 Trust Radius=3.00D-01 FncErr=1.00D-07 GrdErr=1.00D-06
 Number of steps in this run=     47 maximum allowed number of steps=    100.
 GradGradGradGradGradGradGradGradGradGradGradGradGradGradGradGradGradGrad

                          Input orientation:                          
 ---------------------------------------------------------------------
 Center     Atomic      Atomic             Coordinates (Angstroms)
 Number     Number       Type             X           Y           Z
 ---------------------------------------------------------------------
      1         78           0       -0.319549    0.338346    0.000000
      2         35           0       -0.319549    0.338346   -2.430000
      3         35           0        1.670451    0.338346    0.000000
      4         17           0       -0.319549    2.618346    0.000000
      5         35           0       -0.319549    0.338346    2.430000
      6         17           0       -0.319549   -1.651654    0.000000
      7          7           0       -2.309549    0.338346    0.000000
      8          8           0       -2.762882    1.460989   -0.619484
      9          8           0       -2.762882   -0.759465   -0.662495
 ---------------------------------------------------------------------
                    Distance matrix (angstroms):
                    1          2          3          4          5
     1  Pt   0.000000
     2  Br   2.430000   0.000000
     3  Br   1.990000   3.140860   0.000000
     4  Cl   2.280000   3.332161   3.026301   0.000000
     5  Br   2.430000   4.860000   3.140860   3.332161   0.000000
     6  Cl   1.990000   3.140860   2.814285   4.270000   3.140860
     7  N    1.990000   3.140860   3.980000   3.026301   3.140860
     8  O    2.759341   3.241631   4.615033   2.773646   4.065656
     9  O    2.759341   3.209227   4.615033   4.221183   4.091282
                    6          7          8          9
     6  Cl   0.000000
     7  N    2.814285   0.000000
     8  O    4.005270   1.360000   0.000000
     9  O    2.684172   1.360000   2.220871   0.000000
 Stoichiometry    Br3Cl2NO2Pt(2-)
 Framework group  C1[X(Br3Cl2NO2Pt)]
 Deg. of freedom    21
 Full point group                 C1      NOp   1
 Largest Abelian subgroup         C1      NOp   1
 Largest concise Abelian subgroup C1      NOp   1
                         Standard orientation:                         
 ---------------------------------------------------------------------
 Center     Atomic      Atomic             Coordinates (Angstroms)
 Number     Number       Type             X           Y           Z
 ---------------------------------------------------------------------
      1         78           0       -0.031353    0.074862   -0.022246
      2         35           0        2.368793   -0.304800   -0.014768
      3         35           0       -0.342318   -1.890575   -0.000807
      4         17           0       -0.034445    0.100219    2.257611
      5         35           0       -2.431499    0.454524   -0.029724
      6         17           0       -0.028655    0.052730   -2.012121
      7          7           0        0.279612    2.040298   -0.043684
      8          8           0        0.960803    2.403733    1.075911
      9          8           0        1.006297    2.372318   -1.144272
 ---------------------------------------------------------------------
 Rotational constants (GHZ):      0.5572715      0.3855833      0.3372287
 General basis read from cards:  (5D, 7F)
 ======================================================================================================
                                       Pseudopotential Parameters
 ======================================================================================================
  Center     Atomic      Valence      Angular      Power
  Number     Number     Electrons     Momentum     of R      Exponent        Coefficient   SO-Coeffient
 ======================================================================================================
    1         78           18
                                      G and up 
                                                     1      728.9394056       -0.16192680    0.00000000
                                                     2      320.6567800    -1320.28738520    0.00000000
                                                     2       52.8680174     -298.31781350    0.00000000
                                                     2       12.0280128      -87.58370650    0.00000000
                                                     2        3.5238913       -8.14932740    0.00000000
                                      S - G
                                                     0      409.4437358        2.73342180    0.00000000
                                                     1      274.5419231       59.70243290    0.00000000
                                                     2      127.5658570      891.45895500    0.00000000
                                                     2       32.9036631      368.44676560    0.00000000
                                                     2        5.0593880      238.02630900    0.00000000
                                                     2        4.1506556     -107.05564540    0.00000000
                                      P - G
                                                     0      466.1728892        1.88785680    0.00000000
                                                     1      120.7888259       76.01386290    0.00000000
                                                     2       36.4118791      343.55111160    0.00000000
                                                     2        5.6985408      119.49117860    0.00000000
                                      D - G
                                                     0      249.5650763        2.93436780    0.00000000
                                                     1      126.6678585       59.33065710    0.00000000
                                                     2       63.1430586      452.44451940    0.00000000
                                                     2       17.9059470      210.47694790    0.00000000
                                                     2        4.2239373       58.62541120    0.00000000
                                      F - G
                                                     0      121.8158799        3.95342530    0.00000000
                                                     1       60.8757030       53.85551820    0.00000000
                                                     2       31.4767147      247.43051330    0.00000000
                                                     2        9.8811751      127.81879760    0.00000000
                                                     2        2.7319874       15.37720460    0.00000000
    2         35
                                   No pseudopotential on this center.
    3         35
                                   No pseudopotential on this center.
    4         17
                                   No pseudopotential on this center.
    5         35
                                   No pseudopotential on this center.
    6         17
                                   No pseudopotential on this center.
    7          7
                                   No pseudopotential on this center.
    8          8
                                   No pseudopotential on this center.
    9          8
                                   No pseudopotential on this center.
 ======================================================================================================
 There are   212 symmetry adapted cartesian basis functions of A   symmetry.
 There are   196 symmetry adapted basis functions of A   symmetry.
   196 basis functions,   432 primitive gaussians,   212 cartesian basis functions
    91 alpha electrons       91 beta electrons
       nuclear repulsion energy      2404.0922440301 Hartrees.
 NAtoms=    9 NActive=    9 NUniq=    9 SFac= 1.00D+00 NAtFMM=   60 NAOKFM=F Big=F
 Integral buffers will be    131072 words long.
 Raffenetti 2 integral format.
 Two-electron integral symmetry is turned on.
 ------------------------------------------------------------------------------
 Polarizable Continuum Model (PCM)
 =================================
 Model                : PCM (using non-symmetric T matrix).
 Atomic radii         : UFF (Universal Force Field).
 Polarization charges : Total charges.
 Charge compensation  : None.
 Solution method      : On-the-fly selection.
 Cavity type          : Scaled VdW (van der Waals Surface) (Alpha=1.100).
 Cavity algorithm     : GePol (No added spheres)
                        Default sphere list used, NSphG=    9.
                        Lebedev-Laikov grids with approx.  5.0 points / Ang**2.
                        Smoothing algorithm: Karplus/York (Gamma=1.0000).
                        Polarization charges: spherical gaussians, with
                                              point-specific exponents (IZeta= 3).
                        Self-potential: point-specific (ISelfS= 7).
                        Self-field    : sphere-specific E.n sum rule (ISelfD= 2).
 1st derivatives      : Analytical E(r).r(x)/FMM algorithm (CHGder, D1EAlg=3).
                        Cavity 1st derivative terms included.
 Solvent              : Water, Eps=  78.355300 Eps(inf)=   1.777849
 ------------------------------------------------------------------------------
 Spheres list:
 ISph  on   Nord     Re0    Alpha      Xe            Ye            Ze
    1  Pt      1    1.3770  1.100     -0.031353      0.074862     -0.022246
    2  Br      2    2.0945  1.100      2.368793     -0.304800     -0.014768
    3  Br      3    2.0945  1.100     -0.342318     -1.890575     -0.000807
    4  Cl      4    1.9735  1.100     -0.034445      0.100219      2.257611
    5  Br      5    2.0945  1.100     -2.431499      0.454524     -0.029724
    6  Cl      6    1.9735  1.100     -0.028655      0.052730     -2.012121
    7   N      7    1.8300  1.100      0.279612      2.040298     -0.043684
    8   O      8    1.7500  1.100      0.960803      2.403733      1.075911
    9   O      9    1.7500  1.100      1.006297      2.372318     -1.144272
 ------------------------------------------------------------------------------
 One-electron integrals computed using PRISM.
   1 Symmetry operations used in ECPInt.
 ECPInt:  NShTT=    3081 NPrTT=   16147 LenC2=    2846 LenP2D=   10351.
 LDataN:  DoStor=T MaxTD1= 6 Len=  172
 NBasis=   196 RedAO= T EigKep=  2.35D-03  NBF=   196
 NBsUse=   196 1.00D-06 EigRej= -1.00D+00 NBFU=   196
 Defaulting to unpruned grid for atomic number  78.
 ExpMin= 2.90D-02 ExpMax= 1.13D+05 ExpMxC= 1.70D+04 IAcc=3 IRadAn=         5 AccDes= 0.00D+00
 Harris functional with IExCor=  402 and IRadAn=       5 diagonalized for initial guess.
 HarFok:  IExCor=  402 AccDes= 0.00D+00 IRadAn=         5 IDoV= 1 UseB2=F ITyADJ=14
 ICtDFT=  3500011 ScaDFX=  1.000000  1.000000  1.000000  1.000000
 Defaulting to unpruned grid for atomic number  78.
 Defaulting to unpruned grid for atomic number  78.
 Defaulting to unpruned grid for atomic number  78.
 Defaulting to unpruned grid for atomic number  78.
 Defaulting to unpruned grid for atomic number  78.
 Defaulting to unpruned grid for atomic number  78.
 Defaulting to unpruned grid for atomic number  78.
 Defaulting to unpruned grid for atomic number  78.
 FoFCou: FMM=F IPFlag=           0 FMFlag=      100000 FMFlg1=           0
         NFxFlg=           0 DoJE=T BraDBF=F KetDBF=T FulRan=T
         wScrn=  0.000000 ICntrl=     500 IOpCl=  0 I1Cent=   200000004 NGrid=           0
         NMat0=    1 NMatS0=      1 NMatT0=    0 NMatD0=    1 NMtDS0=    0 NMtDT0=    0
 Petite list used in FoFCou.
 Keep R1 ints in memory in canonical form, NReq=192002391.
 Requested convergence on RMS density matrix=1.00D-08 within 128 cycles.
 Requested convergence on MAX density matrix=1.00D-06.
 Requested convergence on             energy=1.00D-06.
 No special actions if energy rises.
 Defaulting to unpruned grid for atomic number  78.
 Defaulting to unpruned grid for atomic number  78.
 Defaulting to unpruned grid for atomic number  78.
 Defaulting to unpruned grid for atomic number  78.
 Defaulting to unpruned grid for atomic number  78.
 Defaulting to unpruned grid for atomic number  78.
 Defaulting to unpruned grid for atomic number  78.
 Defaulting to unpruned grid for atomic number  78.
 Inv3:  Mode=1 IEnd=     6255408.
 Iteration    1 A*A^-1 deviation from unit magnitude is 6.77D-15 for    632.
 Iteration    1 A*A^-1 deviation from orthogonality  is 3.95D-15 for   1259    735.
 Iteration    1 A^-1*A deviation from unit magnitude is 5.66D-15 for    904.
 Iteration    1 A^-1*A deviation from orthogonality  is 9.80D-15 for    923    801.
 EnCoef did   100 forward-backward iterations
 EnCoef did     5 forward-backward iterations
 Error on total polarization charges =  0.01741
 SCF Done:  E(RB3LYP) =  -8966.03875363     A.U. after   18 cycles
            NFock= 18  Conv=0.93D-08     -V/T= 2.0104

 **********************************************************************

            Population analysis using the SCF density.

 **********************************************************************

 Orbital symmetries:
       Occupied  (A) (A) (A) (A) (A) (A) (A) (A) (A) (A) (A) (A)
                 (A) (A) (A) (A) (A) (A) (A) (A) (A) (A) (A) (A)
                 (A) (A) (A) (A) (A) (A) (A) (A) (A) (A) (A) (A)
                 (A) (A) (A) (A) (A) (A) (A) (A) (A) (A) (A) (A)
                 (A) (A) (A) (A) (A) (A) (A) (A) (A) (A) (A) (A)
                 (A) (A) (A) (A) (A) (A) (A) (A) (A) (A) (A) (A)
                 (A) (A) (A) (A) (A) (A) (A) (A) (A) (A) (A) (A)
                 (A) (A) (A) (A) (A) (A) (A)
       Virtual   (A) (A) (A) (A) (A) (A) (A) (A) (A) (A) (A) (A)
                 (A) (A) (A) (A) (A) (A) (A) (A) (A) (A) (A) (A)
                 (A) (A) (A) (A) (A) (A) (A) (A) (A) (A) (A) (A)
                 (A) (A) (A) (A) (A) (A) (A) (A) (A) (A) (A) (A)
                 (A) (A) (A) (A) (A) (A) (A) (A) (A) (A) (A) (A)
                 (A) (A) (A) (A) (A) (A) (A) (A) (A) (A) (A) (A)
                 (A) (A) (A) (A) (A) (A) (A) (A) (A) (A) (A) (A)
                 (A) (A) (A) (A) (A) (A) (A) (A) (A) (A) (A) (A)
                 (A) (A) (A) (A) (A) (A) (A) (A) (A)
 The electronic state is 1-A.
 Alpha  occ. eigenvalues -- -482.74724-482.74705-482.74374-101.44463-101.42063
 Alpha  occ. eigenvalues --  -62.43260 -62.42908 -62.42555 -56.26401 -56.26104
 Alpha  occ. eigenvalues --  -56.26100 -56.26097 -56.25802 -56.25799 -56.25748
 Alpha  occ. eigenvalues --  -56.25448 -56.25445 -19.11978 -19.11875 -14.46322
 Alpha  occ. eigenvalues --   -9.40540  -9.37549  -8.65558  -8.64693  -8.64341
 Alpha  occ. eigenvalues --   -7.17387  -7.16380  -7.16343  -7.14268  -7.13553
 Alpha  occ. eigenvalues --   -7.13516  -6.49024  -6.47901  -6.47570  -6.47561
 Alpha  occ. eigenvalues --   -6.47557  -6.46822  -6.46810  -6.46464  -6.46452
 Alpha  occ. eigenvalues --   -4.02378  -2.60600  -2.60053  -2.60044  -2.59353
 Alpha  occ. eigenvalues --   -2.59052  -2.59040  -2.59010  -2.58898  -2.58896
 Alpha  occ. eigenvalues --   -2.58705  -2.58693  -2.58193  -2.58193  -2.57833
 Alpha  occ. eigenvalues --   -2.57832  -2.25325  -2.24513  -2.23295  -1.06896
 Alpha  occ. eigenvalues --   -0.90915  -0.81657  -0.77796  -0.73927  -0.72912
 Alpha  occ. eigenvalues --   -0.72115  -0.62758  -0.48852  -0.47187  -0.46009
 Alpha  occ. eigenvalues --   -0.44632  -0.43461  -0.42661  -0.41358  -0.40028
 Alpha  occ. eigenvalues --   -0.37956  -0.32050  -0.31782  -0.27058  -0.26713
 Alpha  occ. eigenvalues --   -0.25890  -0.25712  -0.25398  -0.24942  -0.24774
 Alpha  occ. eigenvalues --   -0.24173  -0.23305  -0.22847  -0.22351  -0.21739
 Alpha  occ. eigenvalues --   -0.20453
 Alpha virt. eigenvalues --   -0.09817  -0.07525   0.00407   0.05287   0.06078
 Alpha virt. eigenvalues --    0.06409   0.18268   0.20932   0.21387   0.25404
 Alpha virt. eigenvalues --    0.26974   0.29495   0.33913   0.36183   0.37556
 Alpha virt. eigenvalues --    0.42023   0.43304   0.44626   0.49994   0.53180
 Alpha virt. eigenvalues --    0.53946   0.54040   0.54216   0.55518   0.56025
 Alpha virt. eigenvalues --    0.57469   0.57587   0.59694   0.60713   0.61237
 Alpha virt. eigenvalues --    0.61441   0.63362   0.64220   0.65855   0.66032
 Alpha virt. eigenvalues --    0.70634   0.70857   0.71419   0.74182   0.74919
 Alpha virt. eigenvalues --    0.75704   0.76325   0.77601   0.78370   0.78758
 Alpha virt. eigenvalues --    0.82571   0.88284   0.88764   0.89430   0.91943
 Alpha virt. eigenvalues --    0.94653   0.95487   0.96773   0.97453   1.01505
 Alpha virt. eigenvalues --    1.02541   1.04171   1.07204   1.09783   1.10556
 Alpha virt. eigenvalues --    1.10759   1.12581   1.17133   1.19862   1.21215
 Alpha virt. eigenvalues --    1.25435   1.26855   1.29602   1.31438   1.38567
 Alpha virt. eigenvalues --    1.43537   1.44321   1.48047   1.53709   1.97629
 Alpha virt. eigenvalues --    2.00047   2.07157   2.33142   2.35866   2.67475
 Alpha virt. eigenvalues --    2.68917   2.69298   2.70753   2.78249   3.00359
 Alpha virt. eigenvalues --    3.03435   3.24398   3.43061   3.45093   3.46230
 Alpha virt. eigenvalues --    3.46623   3.47293   3.48394   3.52543   3.53679
 Alpha virt. eigenvalues --    3.55289   3.58259   3.62599   3.63337   3.64550
 Alpha virt. eigenvalues --    3.71479   3.74674   3.78124   3.83948   9.23977
          Condensed to atoms (all electrons):
               1          2          3          4          5          6
     1  Pt  17.920882   0.209532  -0.461008   0.254015   0.202492  -0.018276
     2  Br   0.209532  35.057393  -0.073328  -0.021504  -0.004747  -0.052009
     3  Br  -0.461008  -0.073328  36.224704  -0.025029  -0.059645  -0.122954
     4  Cl   0.254015  -0.021504  -0.025029  17.071565  -0.022906  -0.006051
     5  Br   0.202492  -0.004747  -0.059645  -0.022906  35.060702  -0.054231
     6  Cl  -0.018276  -0.052009  -0.122954  -0.006051  -0.054231  17.680676
     7  N    0.051450  -0.016769  -0.020203   0.000711  -0.019023  -0.034250
     8  O   -0.009502  -0.001893   0.000532  -0.019504   0.000352   0.000532
     9  O   -0.010513  -0.002349   0.000648   0.000138   0.000508  -0.027679
               7          8          9
     1  Pt   0.051450  -0.009502  -0.010513
     2  Br  -0.016769  -0.001893  -0.002349
     3  Br  -0.020203   0.000532   0.000648
     4  Cl   0.000711  -0.019504   0.000138
     5  Br  -0.019023   0.000352   0.000508
     6  Cl  -0.034250   0.000532  -0.027679
     7  N    6.657972   0.182280   0.183129
     8  O    0.182280   8.246353  -0.095831
     9  O    0.183129  -0.095831   8.265520
 Mulliken charges:
               1
     1  Pt  -0.139074
     2  Br  -0.094326
     3  Br  -0.463716
     4  Cl  -0.231434
     5  Br  -0.103502
     6  Cl  -0.365758
     7  N    0.014704
     8  O   -0.303321
     9  O   -0.313572
 Sum of Mulliken charges =  -2.00000
 Mulliken charges with hydrogens summed into heavy atoms:
               1
     1  Pt  -0.139074
     2  Br  -0.094326
     3  Br  -0.463716
     4  Cl  -0.231434
     5  Br  -0.103502
     6  Cl  -0.365758
     7  N    0.014704
     8  O   -0.303321
     9  O   -0.313572
 Electronic spatial extent (au):  <R**2>=           3384.9588
 Charge=             -2.0000 electrons
 Dipole moment (field-independent basis, Debye):
    X=             -2.2117    Y=             -3.9891    Z=             -1.4194  Tot=              4.7770
 Quadrupole moment (field-independent basis, Debye-Ang):
   XX=           -147.5746   YY=           -149.4221   ZZ=           -148.8583
   XY=             -6.0748   XZ=              0.2813   YZ=             -0.1885
 Traceless Quadrupole moment (field-independent basis, Debye-Ang):
   XX=              1.0437   YY=             -0.8038   ZZ=             -0.2399
   XY=             -6.0748   XZ=              0.2813   YZ=             -0.1885
 Octapole moment (field-independent basis, Debye-Ang**2):
  XXX=            -10.7291  YYY=            -59.4463  ZZZ=            -15.9999  XYY=            -22.9305
  XXY=            -18.4527  XXZ=             -0.8380  XZZ=             -6.3222  YZZ=            -20.2173
  YYZ=             -1.1473  XYZ=              0.5744
 Hexadecapole moment (field-independent basis, Debye-Ang**3):
 XXXX=          -1613.6452 YYYY=          -1229.7288 ZZZZ=          -1038.6632 XXXY=            -25.0328
 XXXZ=              1.1863 YYYX=            -70.7811 YYYZ=             -1.3551 ZZZX=              2.1600
 ZZZY=             -1.1309 XXYY=           -480.5047 XXZZ=           -435.5080 YYZZ=           -382.5113
 XXYZ=              0.5472 YYXZ=              1.4313 ZZXY=            -16.6533
 N-N= 2.404092244030D+03 E-N=-2.624196314386D+04  KE= 8.874091483389D+03
   1 Symmetry operations used in ECPInt.
 ECPInt:  NShTT=    3081 NPrTT=   16147 LenC2=    2846 LenP2D=   10351.
 LDataN:  DoStor=T MaxTD1= 7 Len=  274
 D1PCM: PCM CHGder 1st derivatives, ID1Alg=3 FixD1E=F DoIter=F DoCFld=F I1PDM=0.
 Calling FoFJK, ICntrl=      2127 FMM=F ISym2X=0 I1Cent= 0 IOpClX= 0 NMat=1 NMatS=1 NMatT=0.
 Defaulting to unpruned grid for atomic number  78.
 Defaulting to unpruned grid for atomic number  78.
 Defaulting to unpruned grid for atomic number  78.
 Defaulting to unpruned grid for atomic number  78.
 Defaulting to unpruned grid for atomic number  78.
 Defaulting to unpruned grid for atomic number  78.
 Defaulting to unpruned grid for atomic number  78.
 Defaulting to unpruned grid for atomic number  78.
 ***** Axes restored to original set *****
 -------------------------------------------------------------------
 Center     Atomic                   Forces (Hartrees/Bohr)
 Number     Number              X              Y              Z
 -------------------------------------------------------------------
      1       78          -0.259397682    0.165571041    0.026716894
      2       35          -0.003228739    0.001858908   -0.045182560
      3       35           0.365596073    0.005683099   -0.005634833
      4       17           0.005298661    0.063984751    0.003273613
      5       35          -0.004920406    0.001909611    0.044657698
      6       17           0.003346876   -0.240809647    0.004806532
      7        7          -0.128363257    0.005711552   -0.168000139
      8        8           0.012283079   -0.071034190    0.069554626
      9        8           0.009385396    0.067124876    0.069808169
 -------------------------------------------------------------------
 Cartesian Forces:  Max     0.365596073 RMS     0.115407264

 GradGradGradGradGradGradGradGradGradGradGradGradGradGradGradGradGradGrad
 Berny optimization.
 FormGI is forming the generalized inverse of G from B-inverse, IUseBI=4.
 Internal  Forces:  Max     0.365597961 RMS     0.079988684
 Search for a local minimum.
 Step number   1 out of a maximum of   47
 All quantities printed in internal units (Hartrees-Bohrs-Radians)
 Mixed Optimization -- RFO/linear search
 Second derivative matrix not updated -- first step.
 ITU=  0
     Eigenvalues ---    0.00230   0.04734   0.08487   0.08931   0.12615
     Eigenvalues ---    0.12615   0.12615   0.13281   0.16743   0.19509
     Eigenvalues ---    0.19509   0.20378   0.22001   0.25000   0.25000
     Eigenvalues ---    0.25000   0.25000   0.52948   0.52948   0.57823
     Eigenvalues ---    0.90956
 RFO step:  Lambda=-2.66338569D-01 EMin= 2.30000000D-03
 Linear search not attempted -- first point.
 Maximum step size (   0.300) exceeded in Quadratic search.
    -- Step size scaled by   0.531
 Iteration  1 RMS(Cart)=  0.06818610 RMS(Int)=  0.00144971
 Iteration  2 RMS(Cart)=  0.00163324 RMS(Int)=  0.00079227
 Iteration  3 RMS(Cart)=  0.00000476 RMS(Int)=  0.00079226
 Iteration  4 RMS(Cart)=  0.00000002 RMS(Int)=  0.00079226
 Variable       Old X    -DE/DX   Delta X   Delta X   Delta X     New X
                                 (Linear)    (Quad)   (Total)
    R1        4.59203   0.04519   0.00000   0.05197   0.05197   4.64401
    R2        3.76056   0.36560   0.00000   0.16499   0.16499   3.92555
    R3        4.30858   0.06397   0.00000   0.06980   0.06980   4.37838
    R4        4.59203   0.04465   0.00000   0.05135   0.05135   4.64338
    R5        3.76056   0.24082   0.00000   0.15132   0.15132   3.91187
    R6        3.76056   0.10671   0.00000   0.12046   0.12046   3.88101
    R7        2.57003  -0.09440   0.00000  -0.06295  -0.06295   2.50708
    R8        2.57003  -0.09135   0.00000  -0.06092  -0.06092   2.50911
    A1        1.57080  -0.00159   0.00000  -0.00155  -0.00155   1.56925
    A2        1.57080   0.00093   0.00000   0.00144   0.00148   1.57228
    A3        1.57080   0.00443   0.00000   0.00655   0.00657   1.57737
    A4        1.57080  -0.00725   0.00000  -0.01041  -0.01042   1.56038
    A5        1.57080  -0.01105   0.00000  -0.01399  -0.01398   1.55682
    A6        1.57080   0.01094   0.00000   0.01419   0.01418   1.58497
    A7        1.57080   0.00218   0.00000   0.00219   0.00222   1.57301
    A8        1.57080  -0.00379   0.00000  -0.00577  -0.00572   1.56508
    A9        1.57080   0.00311   0.00000   0.00324   0.00327   1.57406
   A10        1.57080  -0.00156   0.00000  -0.00222  -0.00219   1.56861
   A11        1.57080  -0.00210   0.00000  -0.00224  -0.00226   1.56854
   A12        1.57080   0.00576   0.00000   0.00855   0.00859   1.57938
   A13        1.91063   0.04427   0.00000   0.05234   0.05033   1.96097
   A14        1.91063   0.04952   0.00000   0.05773   0.05573   1.96637
   A15        1.91063  -0.01598   0.00000  -0.00274  -0.00618   1.90445
   A16        3.14159   0.00935   0.00000   0.01264   0.01263   3.15422
   A17        3.14159  -0.00884   0.00000  -0.01195  -0.01196   3.12963
   A18        3.14159   0.00535   0.00000   0.00799   0.00805   3.14965
   A19        3.14159  -0.00287   0.00000  -0.00433  -0.00441   3.13718
   A20        3.14159   0.00795   0.00000   0.01074   0.01073   3.15232
   A21        3.14159  -0.00887   0.00000  -0.01179  -0.01177   3.12982
    D1       -1.06657  -0.01781   0.00000  -0.03060  -0.03127  -1.09784
    D2        1.02783   0.02005   0.00000   0.03345   0.03406   1.06189
    D3        0.50423  -0.01688   0.00000  -0.02915  -0.02982   0.47441
    D4        2.59863   0.02098   0.00000   0.03489   0.03551   2.63414
    D5        2.07503  -0.02067   0.00000  -0.03493  -0.03555   2.03948
    D6       -2.11376   0.01718   0.00000   0.02912   0.02979  -2.08397
    D7       -2.63736  -0.02224   0.00000  -0.03714  -0.03776  -2.67512
    D8       -0.54297   0.01562   0.00000   0.02690   0.02758  -0.51538
         Item               Value     Threshold  Converged?
 Maximum Force            0.365598     0.000450     NO 
 RMS     Force            0.079989     0.000300     NO 
 Maximum Displacement     0.206970     0.001800     NO 
 RMS     Displacement     0.067364     0.001200     NO 
 Predicted change in Energy=-1.169299D-01
 GradGradGradGradGradGradGradGradGradGradGradGradGradGradGradGradGradGrad

                          Input orientation:                          
 ---------------------------------------------------------------------
 Center     Atomic      Atomic             Coordinates (Angstroms)
 Number     Number       Type             X           Y           Z
 ---------------------------------------------------------------------
      1         78           0       -0.297236    0.338642   -0.004551
      2         35           0       -0.285498    0.343265   -2.462022
      3         35           0        1.779975    0.357748    0.002191
      4         17           0       -0.286186    2.655541    0.003297
      5         35           0       -0.340104    0.344568    2.452240
      6         17           0       -0.282817   -1.731358    0.005227
      7          7           0       -2.350739    0.341829   -0.035745
      8          8           0       -2.845126    1.435939   -0.600195
      9          8           0       -2.854875   -0.726229   -0.642422
 ---------------------------------------------------------------------
                    Distance matrix (angstroms):
                    1          2          3          4          5
     1  Pt   0.000000
     2  Br   2.457504   0.000000
     3  Br   2.077310   3.215391   0.000000
     4  Cl   2.316938   3.380002   3.090125   0.000000
     5  Br   2.457172   4.914566   3.240007   3.367614   0.000000
     6  Cl   2.070073   3.223568   2.935895   4.386900   3.209458
     7  N    2.053743   3.186227   4.130919   3.101156   3.198864
     8  O    2.837358   3.348437   4.787163   2.898242   4.096778
     9  O    2.842947   3.325126   4.803371   4.295519   4.128876
                    6          7          8          9
     6  Cl   0.000000
     7  N    2.928495   0.000000
     8  O    4.118706   1.326687   0.000000
     9  O    2.836409   1.327764   2.162602   0.000000
 Stoichiometry    Br3Cl2NO2Pt(2-)
 Framework group  C1[X(Br3Cl2NO2Pt)]
 Deg. of freedom    21
 Full point group                 C1      NOp   1
 Largest Abelian subgroup         C1      NOp   1
 Largest concise Abelian subgroup C1      NOp   1
                         Standard orientation:                         
 ---------------------------------------------------------------------
 Center     Atomic      Atomic             Coordinates (Angstroms)
 Number     Number       Type             X           Y           Z
 ---------------------------------------------------------------------
      1         78           0       -0.029043    0.075291   -0.022880
      2         35           0        2.399686   -0.299566   -0.013792
      3         35           0       -0.342774   -1.978145   -0.009111
      4         17           0       -0.043507    0.060275    2.293964
      5         35           0       -2.452521    0.480812   -0.021339
      6         17           0       -0.036316    0.067164   -2.092925
      7          7           0        0.305319    2.101615   -0.014373
      8          8           0        0.934247    2.504662    1.082032
      9          8           0        0.982182    2.512959   -1.080023
 ---------------------------------------------------------------------
 Rotational constants (GHZ):      0.5194987      0.3759128      0.3223584
 Basis read from rwf:  (5D, 7F)
 Pseudo-potential data read from rwf file.
 There are   212 symmetry adapted cartesian basis functions of A   symmetry.
 There are   196 symmetry adapted basis functions of A   symmetry.
   196 basis functions,   432 primitive gaussians,   212 cartesian basis functions
    91 alpha electrons       91 beta electrons
       nuclear repulsion energy      2347.8962766059 Hartrees.
 NAtoms=    9 NActive=    9 NUniq=    9 SFac= 1.00D+00 NAtFMM=   60 NAOKFM=F Big=F
 Integral buffers will be    131072 words long.
 Raffenetti 2 integral format.
 Two-electron integral symmetry is turned on.
 ------------------------------------------------------------------------------
 Polarizable Continuum Model (PCM)
 =================================
 Model                : PCM (using non-symmetric T matrix).
 Atomic radii         : UFF (Universal Force Field).
 Polarization charges : Total charges.
 Charge compensation  : None.
 Solution method      : On-the-fly selection.
 Cavity type          : Scaled VdW (van der Waals Surface) (Alpha=1.100).
 Cavity algorithm     : GePol (No added spheres)
                        Default sphere list used, NSphG=    9.
                        Lebedev-Laikov grids with approx.  5.0 points / Ang**2.
                        Smoothing algorithm: Karplus/York (Gamma=1.0000).
                        Polarization charges: spherical gaussians, with
                                              point-specific exponents (IZeta= 3).
                        Self-potential: point-specific (ISelfS= 7).
                        Self-field    : sphere-specific E.n sum rule (ISelfD= 2).
 1st derivatives      : Analytical E(r).r(x)/FMM algorithm (CHGder, D1EAlg=3).
                        Cavity 1st derivative terms included.
 Solvent              : Water, Eps=  78.355300 Eps(inf)=   1.777849
 ------------------------------------------------------------------------------
 Spheres list:
 ISph  on   Nord     Re0    Alpha      Xe            Ye            Ze
    1  Pt      1    1.3770  1.100     -0.029043      0.075291     -0.022880
    2  Br      2    2.0945  1.100      2.399686     -0.299566     -0.013792
    3  Br      3    2.0945  1.100     -0.342774     -1.978145     -0.009111
    4  Cl      4    1.9735  1.100     -0.043507      0.060275      2.293964
    5  Br      5    2.0945  1.100     -2.452521      0.480812     -0.021339
    6  Cl      6    1.9735  1.100     -0.036316      0.067164     -2.092925
    7   N      7    1.8300  1.100      0.305319      2.101615     -0.014373
    8   O      8    1.7500  1.100      0.934247      2.504662      1.082032
    9   O      9    1.7500  1.100      0.982182      2.512959     -1.080023
 ------------------------------------------------------------------------------
 One-electron integrals computed using PRISM.
   1 Symmetry operations used in ECPInt.
 ECPInt:  NShTT=    3081 NPrTT=   16147 LenC2=    2832 LenP2D=   10240.
 LDataN:  DoStor=T MaxTD1= 6 Len=  172
 NBasis=   196 RedAO= T EigKep=  2.91D-03  NBF=   196
 NBsUse=   196 1.00D-06 EigRej= -1.00D+00 NBFU=   196
 Defaulting to unpruned grid for atomic number  78.
 Initial guess from the checkpoint file:  "/home/scr/diego/Gau-19262.chk"
 B after Tr=     0.000000    0.000000    0.000000
         Rot=    0.999983   -0.005487    0.000171   -0.001820 Ang=  -0.66 deg.
 ExpMin= 2.90D-02 ExpMax= 1.13D+05 ExpMxC= 1.70D+04 IAcc=3 IRadAn=         5 AccDes= 0.00D+00
 Harris functional with IExCor=  402 and IRadAn=       5 diagonalized for initial guess.
 HarFok:  IExCor=  402 AccDes= 0.00D+00 IRadAn=         5 IDoV= 1 UseB2=F ITyADJ=14
 ICtDFT=  3500011 ScaDFX=  1.000000  1.000000  1.000000  1.000000
 Defaulting to unpruned grid for atomic number  78.
 Defaulting to unpruned grid for atomic number  78.
 Defaulting to unpruned grid for atomic number  78.
 Defaulting to unpruned grid for atomic number  78.
 Defaulting to unpruned grid for atomic number  78.
 Defaulting to unpruned grid for atomic number  78.
 Defaulting to unpruned grid for atomic number  78.
 Defaulting to unpruned grid for atomic number  78.
 FoFCou: FMM=F IPFlag=           0 FMFlag=      100000 FMFlg1=           0
         NFxFlg=           0 DoJE=T BraDBF=F KetDBF=T FulRan=T
         wScrn=  0.000000 ICntrl=     500 IOpCl=  0 I1Cent=   200000004 NGrid=           0
         NMat0=    1 NMatS0=      1 NMatT0=    0 NMatD0=    1 NMtDS0=    0 NMtDT0=    0
 Petite list used in FoFCou.
 Keep R1 ints in memory in canonical form, NReq=192123027.
 Requested convergence on RMS density matrix=1.00D-08 within 128 cycles.
 Requested convergence on MAX density matrix=1.00D-06.
 Requested convergence on             energy=1.00D-06.
 No special actions if energy rises.
 Defaulting to unpruned grid for atomic number  78.
 Defaulting to unpruned grid for atomic number  78.
 Defaulting to unpruned grid for atomic number  78.
 Defaulting to unpruned grid for atomic number  78.
 Defaulting to unpruned grid for atomic number  78.
 Defaulting to unpruned grid for atomic number  78.
 Defaulting to unpruned grid for atomic number  78.
 Defaulting to unpruned grid for atomic number  78.
 Inv3:  Mode=1 IEnd=     6606768.
 Iteration    1 A*A^-1 deviation from unit magnitude is 5.77D-15 for      8.
 Iteration    1 A*A^-1 deviation from orthogonality  is 4.11D-15 for    319    100.
 Iteration    1 A^-1*A deviation from unit magnitude is 6.66D-15 for    223.
 Iteration    1 A^-1*A deviation from orthogonality  is 4.37D-15 for    906    809.
 Error on total polarization charges =  0.01665
 SCF Done:  E(RB3LYP) =  -8966.15531355     A.U. after   14 cycles
            NFock= 14  Conv=0.97D-08     -V/T= 2.0105
   1 Symmetry operations used in ECPInt.
 ECPInt:  NShTT=    3081 NPrTT=   16147 LenC2=    2832 LenP2D=   10240.
 LDataN:  DoStor=T MaxTD1= 7 Len=  274
 D1PCM: PCM CHGder 1st derivatives, ID1Alg=3 FixD1E=F DoIter=F DoCFld=F I1PDM=0.
 Calling FoFJK, ICntrl=      2127 FMM=F ISym2X=0 I1Cent= 0 IOpClX= 0 NMat=1 NMatS=1 NMatT=0.
 Defaulting to unpruned grid for atomic number  78.
 Defaulting to unpruned grid for atomic number  78.
 Defaulting to unpruned grid for atomic number  78.
 Defaulting to unpruned grid for atomic number  78.
 Defaulting to unpruned grid for atomic number  78.
 Defaulting to unpruned grid for atomic number  78.
 Defaulting to unpruned grid for atomic number  78.
 Defaulting to unpruned grid for atomic number  78.
 ***** Axes restored to original set *****
 -------------------------------------------------------------------
 Center     Atomic                   Forces (Hartrees/Bohr)
 Number     Number              X              Y              Z
 -------------------------------------------------------------------
      1       78          -0.176132968    0.108291760    0.020687058
      2       35          -0.002556746    0.001135297   -0.032847229
      3       35           0.240472553    0.004365308   -0.002362303
      4       17           0.002059357    0.043040126    0.001888028
      5       35          -0.003572309    0.001299962    0.032722069
      6       17           0.001305839   -0.158459999    0.003196563
      7        7          -0.106238732    0.004235688   -0.152274154
      8        8           0.022496717   -0.049403127    0.064262936
      9        8           0.022166290    0.045494985    0.064727033
 -------------------------------------------------------------------
 Cartesian Forces:  Max     0.240472553 RMS     0.081309314

 GradGradGradGradGradGradGradGradGradGradGradGradGradGradGradGradGradGrad
 Berny optimization.
 Using GEDIIS/GDIIS optimizer.
 FormGI is forming the generalized inverse of G from B-inverse, IUseBI=4.
 Internal  Forces:  Max     0.240500831 RMS     0.053531545
 Search for a local minimum.
 Step number   2 out of a maximum of   47
 All quantities printed in internal units (Hartrees-Bohrs-Radians)
 Mixed Optimization -- RFO/linear search
 Update second derivatives using D2CorX and points    1    2
 DE= -1.17D-01 DEPred=-1.17D-01 R= 9.97D-01
 TightC=F SS=  1.41D+00  RLast= 3.13D-01 DXNew= 5.0454D-01 9.3983D-01
 Trust test= 9.97D-01 RLast= 3.13D-01 DXMaxT set to 5.05D-01
 ITU=  1  0
 Use linear search instead of GDIIS.
 Linear search step of   0.599 exceeds DXMaxT=   0.505 but not scaled.
 Quartic linear search produced a step of  2.00000.
 Iteration  1 RMS(Cart)=  0.10892730 RMS(Int)=  0.02926015
 Iteration  2 RMS(Cart)=  0.02834113 RMS(Int)=  0.00421556
 Iteration  3 RMS(Cart)=  0.00008095 RMS(Int)=  0.00421507
 Iteration  4 RMS(Cart)=  0.00000096 RMS(Int)=  0.00421507
 Variable       Old X    -DE/DX   Delta X   Delta X   Delta X     New X
                                 (Linear)    (Quad)   (Total)
    R1        4.64401   0.03287   0.10395   0.00000   0.10395   4.74796
    R2        3.92555   0.24050   0.32998   0.00000   0.32998   4.25553
    R3        4.37838   0.04304   0.13961   0.00000   0.13961   4.51799
    R4        4.64338   0.03275   0.10270   0.00000   0.10270   4.74608
    R5        3.91187   0.15849   0.30263   0.00000   0.30263   4.21450
    R6        3.88101   0.06197   0.24091   0.00000   0.24091   4.12192
    R7        2.50708  -0.07648  -0.12590   0.00000  -0.12590   2.38117
    R8        2.50911  -0.07465  -0.12183   0.00000  -0.12183   2.38728
    A1        1.56925   0.00006  -0.00310   0.00000  -0.00310   1.56614
    A2        1.57228   0.00045   0.00297   0.00000   0.00322   1.57549
    A3        1.57737   0.00242   0.01314   0.00000   0.01329   1.59066
    A4        1.56038  -0.00654  -0.02083   0.00000  -0.02089   1.53949
    A5        1.55682  -0.00417  -0.02796   0.00000  -0.02790   1.52892
    A6        1.58497   0.00654   0.02836   0.00000   0.02828   1.61325
    A7        1.57301   0.00189   0.00443   0.00000   0.00457   1.57758
    A8        1.56508  -0.00214  -0.01143   0.00000  -0.01108   1.55400
    A9        1.57406   0.00199   0.00654   0.00000   0.00669   1.58075
   A10        1.56861  -0.00062  -0.00438   0.00000  -0.00421   1.56439
   A11        1.56854  -0.00009  -0.00452   0.00000  -0.00466   1.56387
   A12        1.57938   0.00037   0.01718   0.00000   0.01741   1.59679
   A13        1.96097   0.01862   0.10067   0.00000   0.08825   2.04921
   A14        1.96637   0.01917   0.11147   0.00000   0.09915   2.06552
   A15        1.90445   0.00614  -0.01237   0.00000  -0.02954   1.87491
   A16        3.15422   0.00660   0.02526   0.00000   0.02518   3.17940
   A17        3.12963  -0.00648  -0.02393   0.00000  -0.02399   3.10564
   A18        3.14965   0.00287   0.01611   0.00000   0.01650   3.16615
   A19        3.13718  -0.00184  -0.00882   0.00000  -0.00930   3.12788
   A20        3.15232   0.00219   0.02145   0.00000   0.02136   3.17368
   A21        3.12982  -0.00228  -0.02355   0.00000  -0.02343   3.10639
    D1       -1.09784  -0.01804  -0.06255   0.00000  -0.06537  -1.16321
    D2        1.06189   0.01943   0.06813   0.00000   0.07057   1.13246
    D3        0.47441  -0.01763  -0.05965   0.00000  -0.06243   0.41197
    D4        2.63414   0.01984   0.07103   0.00000   0.07351   2.70765
    D5        2.03948  -0.01978  -0.07109   0.00000  -0.07358   1.96590
    D6       -2.08397   0.01769   0.05958   0.00000   0.06236  -2.02161
    D7       -2.67512  -0.02040  -0.07551   0.00000  -0.07795  -2.75307
    D8       -0.51538   0.01707   0.05516   0.00000   0.05799  -0.45740
         Item               Value     Threshold  Converged?
 Maximum Force            0.240501     0.000450     NO 
 RMS     Force            0.053532     0.000300     NO 
 Maximum Displacement     0.402987     0.001800     NO 
 RMS     Displacement     0.129026     0.001200     NO 
 Predicted change in Energy=-9.489644D-02
 GradGradGradGradGradGradGradGradGradGradGradGradGradGradGradGradGradGrad

                          Input orientation:                          
 ---------------------------------------------------------------------
 Center     Atomic      Atomic             Coordinates (Angstroms)
 Number     Number       Type             X           Y           Z
 ---------------------------------------------------------------------
      1         78           0       -0.257811    0.338045   -0.012126
      2         35           0       -0.230130    0.352096   -2.524445
      3         35           0        1.993227    0.399659    0.002545
      4         17           0       -0.223279    2.728480    0.012858
      5         35           0       -0.381289    0.355800    2.496290
      6         17           0       -0.212132   -1.891472    0.020203
      7          7           0       -2.437063    0.348772   -0.104356
      8          8           0       -2.993070    1.380964   -0.566084
      9          8           0       -3.021059   -0.652398   -0.606865
 ---------------------------------------------------------------------
                    Distance matrix (angstroms):
                    1          2          3          4          5
     1  Pt   0.000000
     2  Br   2.512511   0.000000
     3  Br   2.251929   3.366193   0.000000
     4  Cl   2.390815   3.476371   3.215029   0.000000
     5  Br   2.511516   5.023012   3.443692   3.438315   0.000000
     6  Cl   2.230220   3.392515   3.180126   4.619972   3.348112
     7  N    2.181229   3.275271   4.431871   3.252321   3.315059
     8  O    2.979293   3.539433   5.113653   3.134121   4.153372
     9  O    2.995034   3.532055   5.159581   4.431926   4.196954
                    6          7          8          9
     6  Cl   0.000000
     7  N    3.159830   0.000000
     8  O    4.334303   1.260062   0.000000
     9  O    3.133463   1.263292   2.033963   0.000000
 Stoichiometry    Br3Cl2NO2Pt(2-)
 Framework group  C1[X(Br3Cl2NO2Pt)]
 Deg. of freedom    21
 Full point group                 C1      NOp   1
 Largest Abelian subgroup         C1      NOp   1
 Largest concise Abelian subgroup C1      NOp   1
                         Standard orientation:                         
 ---------------------------------------------------------------------
 Center     Atomic      Atomic             Coordinates (Angstroms)
 Number     Number       Type             X           Y           Z
 ---------------------------------------------------------------------
      1         78           0       -0.025553    0.077651   -0.025504
      2         35           0        2.462250   -0.273540   -0.010773
      3         35           0       -0.330017   -2.153566   -0.012900
      4         17           0       -0.062683   -0.004801    2.363600
      5         35           0       -2.497260    0.522631   -0.006350
      6         17           0       -0.056114    0.084494   -2.255504
      7          7           0        0.346347    2.226153    0.032693
      8          8           0        0.872376    2.695751    1.076977
      9          8           0        0.923148    2.762000   -0.955273
 ---------------------------------------------------------------------
 Rotational constants (GHZ):      0.4559829      0.3574018      0.2956764
 Basis read from rwf:  (5D, 7F)
 Pseudo-potential data read from rwf file.
 There are   212 symmetry adapted cartesian basis functions of A   symmetry.
 There are   196 symmetry adapted basis functions of A   symmetry.
   196 basis functions,   432 primitive gaussians,   212 cartesian basis functions
    91 alpha electrons       91 beta electrons
       nuclear repulsion energy      2246.4287566650 Hartrees.
 NAtoms=    9 NActive=    9 NUniq=    9 SFac= 1.00D+00 NAtFMM=   60 NAOKFM=F Big=F
 Integral buffers will be    131072 words long.
 Raffenetti 2 integral format.
 Two-electron integral symmetry is turned on.
 ------------------------------------------------------------------------------
 Polarizable Continuum Model (PCM)
 =================================
 Model                : PCM (using non-symmetric T matrix).
 Atomic radii         : UFF (Universal Force Field).
 Polarization charges : Total charges.
 Charge compensation  : None.
 Solution method      : On-the-fly selection.
 Cavity type          : Scaled VdW (van der Waals Surface) (Alpha=1.100).
 Cavity algorithm     : GePol (No added spheres)
                        Default sphere list used, NSphG=    9.
                        Lebedev-Laikov grids with approx.  5.0 points / Ang**2.
                        Smoothing algorithm: Karplus/York (Gamma=1.0000).
                        Polarization charges: spherical gaussians, with
                                              point-specific exponents (IZeta= 3).
                        Self-potential: point-specific (ISelfS= 7).
                        Self-field    : sphere-specific E.n sum rule (ISelfD= 2).
 1st derivatives      : Analytical E(r).r(x)/FMM algorithm (CHGder, D1EAlg=3).
                        Cavity 1st derivative terms included.
 Solvent              : Water, Eps=  78.355300 Eps(inf)=   1.777849
 ------------------------------------------------------------------------------
 Spheres list:
 ISph  on   Nord     Re0    Alpha      Xe            Ye            Ze
    1  Pt      1    1.3770  1.100     -0.025553      0.077651     -0.025504
    2  Br      2    2.0945  1.100      2.462250     -0.273540     -0.010773
    3  Br      3    2.0945  1.100     -0.330017     -2.153566     -0.012900
    4  Cl      4    1.9735  1.100     -0.062683     -0.004801      2.363600
    5  Br      5    2.0945  1.100     -2.497260      0.522631     -0.006350
    6  Cl      6    1.9735  1.100     -0.056114      0.084494     -2.255504
    7   N      7    1.8300  1.100      0.346347      2.226153      0.032693
    8   O      8    1.7500  1.100      0.872376      2.695751      1.076977
    9   O      9    1.7500  1.100      0.923148      2.762000     -0.955273
 ------------------------------------------------------------------------------
 One-electron integrals computed using PRISM.
   1 Symmetry operations used in ECPInt.
 ECPInt:  NShTT=    3081 NPrTT=   16147 LenC2=    2801 LenP2D=   10056.
 LDataN:  DoStor=T MaxTD1= 6 Len=  172
 NBasis=   196 RedAO= T EigKep=  4.28D-03  NBF=   196
 NBsUse=   196 1.00D-06 EigRej= -1.00D+00 NBFU=   196
 Defaulting to unpruned grid for atomic number  78.
 Initial guess from the checkpoint file:  "/home/scr/diego/Gau-19262.chk"
 B after Tr=     0.000000    0.000000    0.000000
         Rot=    0.999958   -0.007199    0.000151   -0.005731 Ang=  -1.05 deg.
 ExpMin= 2.90D-02 ExpMax= 1.13D+05 ExpMxC= 1.70D+04 IAcc=3 IRadAn=         5 AccDes= 0.00D+00
 Harris functional with IExCor=  402 and IRadAn=       5 diagonalized for initial guess.
 HarFok:  IExCor=  402 AccDes= 0.00D+00 IRadAn=         5 IDoV= 1 UseB2=F ITyADJ=14
 ICtDFT=  3500011 ScaDFX=  1.000000  1.000000  1.000000  1.000000
 Defaulting to unpruned grid for atomic number  78.
 Defaulting to unpruned grid for atomic number  78.
 Defaulting to unpruned grid for atomic number  78.
 Defaulting to unpruned grid for atomic number  78.
 Defaulting to unpruned grid for atomic number  78.
 Defaulting to unpruned grid for atomic number  78.
 Defaulting to unpruned grid for atomic number  78.
 Defaulting to unpruned grid for atomic number  78.
 FoFCou: FMM=F IPFlag=           0 FMFlag=      100000 FMFlg1=           0
         NFxFlg=           0 DoJE=T BraDBF=F KetDBF=T FulRan=T
         wScrn=  0.000000 ICntrl=     500 IOpCl=  0 I1Cent=   200000004 NGrid=           0
         NMat0=    1 NMatS0=      1 NMatT0=    0 NMatD0=    1 NMtDS0=    0 NMtDT0=    0
 Petite list used in FoFCou.
 Keep R1 ints in memory in canonical form, NReq=192345041.
 Requested convergence on RMS density matrix=1.00D-08 within 128 cycles.
 Requested convergence on MAX density matrix=1.00D-06.
 Requested convergence on             energy=1.00D-06.
 No special actions if energy rises.
 Defaulting to unpruned grid for atomic number  78.
 Defaulting to unpruned grid for atomic number  78.
 Defaulting to unpruned grid for atomic number  78.
 Defaulting to unpruned grid for atomic number  78.
 Defaulting to unpruned grid for atomic number  78.
 Defaulting to unpruned grid for atomic number  78.
 Defaulting to unpruned grid for atomic number  78.
 Defaulting to unpruned grid for atomic number  78.
 Inv3:  Mode=1 IEnd=     7254075.
 Iteration    1 A*A^-1 deviation from unit magnitude is 6.22D-15 for    722.
 Iteration    1 A*A^-1 deviation from orthogonality  is 4.22D-15 for   1153    342.
 Iteration    1 A^-1*A deviation from unit magnitude is 5.66D-15 for    340.
 Iteration    1 A^-1*A deviation from orthogonality  is 1.51D-12 for    957    815.
 Error on total polarization charges =  0.01564
 SCF Done:  E(RB3LYP) =  -8966.27518047     A.U. after   15 cycles
            NFock= 15  Conv=0.53D-08     -V/T= 2.0106
   1 Symmetry operations used in ECPInt.
 ECPInt:  NShTT=    3081 NPrTT=   16147 LenC2=    2801 LenP2D=   10056.
 LDataN:  DoStor=T MaxTD1= 7 Len=  274
 D1PCM: PCM CHGder 1st derivatives, ID1Alg=3 FixD1E=F DoIter=F DoCFld=F I1PDM=0.
 Calling FoFJK, ICntrl=      2127 FMM=F ISym2X=0 I1Cent= 0 IOpClX= 0 NMat=1 NMatS=1 NMatT=0.
 Defaulting to unpruned grid for atomic number  78.
 Defaulting to unpruned grid for atomic number  78.
 Defaulting to unpruned grid for atomic number  78.
 Defaulting to unpruned grid for atomic number  78.
 Defaulting to unpruned grid for atomic number  78.
 Defaulting to unpruned grid for atomic number  78.
 Defaulting to unpruned grid for atomic number  78.
 Defaulting to unpruned grid for atomic number  78.
 ***** Axes restored to original set *****
 -------------------------------------------------------------------
 Center     Atomic                   Forces (Hartrees/Bohr)
 Number     Number              X              Y              Z
 -------------------------------------------------------------------
      1       78          -0.081459324    0.043918519    0.012521650
      2       35          -0.001587951   -0.000528159   -0.013872289
      3       35           0.094912351    0.000860005    0.000486684
      4       17          -0.001563372    0.012175208    0.000216831
      5       35          -0.001163997    0.000111014    0.013567748
      6       17          -0.000687762   -0.055664057    0.000313231
      7        7          -0.069881150    0.001062121   -0.110398773
      8        8           0.030287476    0.022358799    0.048883200
      9        8           0.031143729   -0.024293450    0.048281719
 -------------------------------------------------------------------
 Cartesian Forces:  Max     0.110398773 RMS     0.041334898

 GradGradGradGradGradGradGradGradGradGradGradGradGradGradGradGradGradGrad
 Berny optimization.
 Using GEDIIS/GDIIS optimizer.
 FormGI is forming the generalized inverse of G from B-inverse, IUseBI=4.
 Internal  Forces:  Max     0.094898015 RMS     0.023858852
 Search for a local minimum.
 Step number   3 out of a maximum of   47
 All quantities printed in internal units (Hartrees-Bohrs-Radians)
 Mixed Optimization -- RFO/linear search
 Update second derivatives using D2CorX and points    2    3
 ITU=  0  1  0
 Use linear search instead of GDIIS.
     Eigenvalues ---    0.00230   0.02301   0.08481   0.08936   0.12563
     Eigenvalues ---    0.12624   0.12675   0.13314   0.16746   0.19092
     Eigenvalues ---    0.19509   0.20089   0.21737   0.24990   0.24997
     Eigenvalues ---    0.25000   0.27875   0.42872   0.52948   0.55498
     Eigenvalues ---    0.72555
 RFO step:  Lambda=-8.94433014D-02 EMin= 2.30007843D-03
 Quartic linear search produced a step of  0.75749.
 Iteration  1 RMS(Cart)=  0.09637990 RMS(Int)=  0.04511534
 Iteration  2 RMS(Cart)=  0.03486944 RMS(Int)=  0.00922332
 Iteration  3 RMS(Cart)=  0.00116550 RMS(Int)=  0.00914703
 Iteration  4 RMS(Cart)=  0.00000072 RMS(Int)=  0.00914703
 Variable       Old X    -DE/DX   Delta X   Delta X   Delta X     New X
                                 (Linear)    (Quad)   (Total)
    R1        4.74796   0.01383   0.07874   0.04517   0.12391   4.87187
    R2        4.25553   0.09490   0.24996   0.06288   0.31284   4.56837
    R3        4.51799   0.01215   0.10575   0.02477   0.13052   4.64851
    R4        4.74608   0.01363   0.07779   0.04376   0.12155   4.86763
    R5        4.21450   0.05564   0.22924   0.05210   0.28134   4.49585
    R6        4.12192   0.00898   0.18249   0.00295   0.18544   4.30736
    R7        2.38117  -0.01295  -0.09537   0.01636  -0.07901   2.30216
    R8        2.38728  -0.01432  -0.09229   0.01168  -0.08061   2.30667
    A1        1.56614   0.00193  -0.00235   0.01028   0.00793   1.57407
    A2        1.57549   0.00058   0.00244   0.00408   0.00664   1.58213
    A3        1.59066  -0.00080   0.01007  -0.00776   0.00228   1.59293
    A4        1.53949  -0.00327  -0.01582  -0.01221  -0.02806   1.51143
    A5        1.52892   0.00379  -0.02113   0.02692   0.00583   1.53476
    A6        1.61325   0.00073   0.02142   0.00224   0.02363   1.63688
    A7        1.57758   0.00010   0.00346  -0.00175   0.00177   1.57935
    A8        1.55400  -0.00014  -0.00839   0.00184  -0.00643   1.54757
    A9        1.58075  -0.00018   0.00507  -0.00256   0.00268   1.58343
   A10        1.56439   0.00030  -0.00319   0.00131  -0.00185   1.56254
   A11        1.56387   0.00067  -0.00353   0.00020  -0.00341   1.56047
   A12        1.59679  -0.00369   0.01319  -0.02269  -0.00932   1.58748
   A13        2.04921  -0.02609   0.06685  -0.06995  -0.03433   2.01489
   A14        2.06552  -0.02786   0.07510  -0.07652  -0.03260   2.03291
   A15        1.87491   0.06132  -0.02238   0.36802   0.31251   2.18742
   A16        3.17940   0.00266   0.01907   0.01253   0.03156   3.21096
   A17        3.10564  -0.00134  -0.01817  -0.00192  -0.02013   3.08551
   A18        3.16615  -0.00021   0.01250  -0.00368   0.00891   3.17506
   A19        3.12788   0.00048  -0.00704   0.00644  -0.00075   3.12713
   A20        3.17368  -0.00358   0.01618  -0.02421  -0.00806   3.16562
   A21        3.10639   0.00394  -0.01775   0.02544   0.00783   3.11421
    D1       -1.16321  -0.01880  -0.04952  -0.21944  -0.27146  -1.43467
    D2        1.13246   0.01783   0.05345   0.20882   0.26478   1.39724
    D3        0.41197  -0.01824  -0.04729  -0.21540  -0.26524   0.14673
    D4        2.70765   0.01839   0.05568   0.21287   0.27099   2.97864
    D5        1.96590  -0.01837  -0.05573  -0.21353  -0.27174   1.69416
    D6       -2.02161   0.01826   0.04724   0.21473   0.26450  -1.75711
    D7       -2.75307  -0.01803  -0.05905  -0.21206  -0.27358  -3.02665
    D8       -0.45740   0.01860   0.04392   0.21620   0.26265  -0.19474
         Item               Value     Threshold  Converged?
 Maximum Force            0.094898     0.000450     NO 
 RMS     Force            0.023859     0.000300     NO 
 Maximum Displacement     0.333086     0.001800     NO 
 RMS     Displacement     0.122367     0.001200     NO 
 Predicted change in Energy=-6.786791D-02
 GradGradGradGradGradGradGradGradGradGradGradGradGradGradGradGradGradGrad

                          Input orientation:                          
 ---------------------------------------------------------------------
 Center     Atomic      Atomic             Coordinates (Angstroms)
 Number     Number       Type             X           Y           Z
 ---------------------------------------------------------------------
      1         78           0       -0.246226    0.351868   -0.045200
      2         35           0       -0.176948    0.363055   -2.622325
      3         35           0        2.169488    0.408163    0.027912
      4         17           0       -0.216029    2.811251   -0.005818
      5         35           0       -0.494550    0.373706    2.518546
      6         17           0       -0.212472   -2.026600   -0.001937
      7          7           0       -2.517113    0.354098   -0.241519
      8          8           0       -3.025055    1.445145   -0.430582
      9          8           0       -3.043701   -0.720740   -0.481056
 ---------------------------------------------------------------------
                    Distance matrix (angstroms):
                    1          2          3          4          5
     1  Pt   0.000000
     2  Br   2.578080   0.000000
     3  Br   2.417476   3.539993   0.000000
     4  Cl   2.459884   3.583475   3.386245   0.000000
     5  Br   2.575837   5.150683   3.647129   3.520172   0.000000
     6  Cl   2.379100   3.546568   3.406273   4.837853   3.491972
     7  N    2.279359   3.338366   4.694651   3.374633   3.421857
     8  O    3.010925   3.753181   5.316844   3.152348   4.030979
     9  O    3.027594   3.738705   5.358248   4.549345   4.085780
                    6          7          8          9
     6  Cl   0.000000
     7  N    3.322122   0.000000
     8  O    4.488583   1.218250   0.000000
     9  O    3.154471   1.220635   2.166554   0.000000
 Stoichiometry    Br3Cl2NO2Pt(2-)
 Framework group  C1[X(Br3Cl2NO2Pt)]
 Deg. of freedom    21
 Full point group                 C1      NOp   1
 Largest Abelian subgroup         C1      NOp   1
 Largest concise Abelian subgroup C1      NOp   1
                         Standard orientation:                         
 ---------------------------------------------------------------------
 Center     Atomic      Atomic             Coordinates (Angstroms)
 Number     Number       Type             X           Y           Z
 ---------------------------------------------------------------------
      1         78           0       -0.018808    0.078986   -0.017598
      2         35           0        2.558518    0.021700    0.006958
      3         35           0       -0.080393   -2.337698   -0.023708
      4         17           0       -0.072193   -0.014535    2.439928
      5         35           0       -2.583824    0.314473   -0.004469
      6         17           0       -0.048218    0.106106   -2.396362
      7          7           0        0.166354    2.349975    0.044028
      8          8           0        0.346642    2.830629    1.148836
      9          8           0        0.409487    2.905120   -1.015524
 ---------------------------------------------------------------------
 Rotational constants (GHZ):      0.4117305      0.3377908      0.2761452
 Basis read from rwf:  (5D, 7F)
 Pseudo-potential data read from rwf file.
 There are   212 symmetry adapted cartesian basis functions of A   symmetry.
 There are   196 symmetry adapted basis functions of A   symmetry.
   196 basis functions,   432 primitive gaussians,   212 cartesian basis functions
    91 alpha electrons       91 beta electrons
       nuclear repulsion energy      2161.6059913690 Hartrees.
 NAtoms=    9 NActive=    9 NUniq=    9 SFac= 1.00D+00 NAtFMM=   60 NAOKFM=F Big=F
 Integral buffers will be    131072 words long.
 Raffenetti 2 integral format.
 Two-electron integral symmetry is turned on.
 ------------------------------------------------------------------------------
 Polarizable Continuum Model (PCM)
 =================================
 Model                : PCM (using non-symmetric T matrix).
 Atomic radii         : UFF (Universal Force Field).
 Polarization charges : Total charges.
 Charge compensation  : None.
 Solution method      : On-the-fly selection.
 Cavity type          : Scaled VdW (van der Waals Surface) (Alpha=1.100).
 Cavity algorithm     : GePol (No added spheres)
                        Default sphere list used, NSphG=    9.
                        Lebedev-Laikov grids with approx.  5.0 points / Ang**2.
                        Smoothing algorithm: Karplus/York (Gamma=1.0000).
                        Polarization charges: spherical gaussians, with
                                              point-specific exponents (IZeta= 3).
                        Self-potential: point-specific (ISelfS= 7).
                        Self-field    : sphere-specific E.n sum rule (ISelfD= 2).
 1st derivatives      : Analytical E(r).r(x)/FMM algorithm (CHGder, D1EAlg=3).
                        Cavity 1st derivative terms included.
 Solvent              : Water, Eps=  78.355300 Eps(inf)=   1.777849
 ------------------------------------------------------------------------------
 Spheres list:
 ISph  on   Nord     Re0    Alpha      Xe            Ye            Ze
    1  Pt      1    1.3770  1.100     -0.018808      0.078986     -0.017598
    2  Br      2    2.0945  1.100      2.558518      0.021700      0.006958
    3  Br      3    2.0945  1.100     -0.080393     -2.337698     -0.023708
    4  Cl      4    1.9735  1.100     -0.072193     -0.014535      2.439928
    5  Br      5    2.0945  1.100     -2.583824      0.314473     -0.004469
    6  Cl      6    1.9735  1.100     -0.048218      0.106106     -2.396362
    7   N      7    1.8300  1.100      0.166354      2.349975      0.044028
    8   O      8    1.7500  1.100      0.346642      2.830629      1.148836
    9   O      9    1.7500  1.100      0.409487      2.905120     -1.015524
 ------------------------------------------------------------------------------
 One-electron integrals computed using PRISM.
   1 Symmetry operations used in ECPInt.
 ECPInt:  NShTT=    3081 NPrTT=   16147 LenC2=    2763 LenP2D=    9871.
 LDataN:  DoStor=T MaxTD1= 6 Len=  172
 NBasis=   196 RedAO= T EigKep=  5.85D-03  NBF=   196
 NBsUse=   196 1.00D-06 EigRej= -1.00D+00 NBFU=   196
 Defaulting to unpruned grid for atomic number  78.
 Initial guess from the checkpoint file:  "/home/scr/diego/Gau-19262.chk"
 B after Tr=     0.000000    0.000000    0.000000
         Rot=    0.998246   -0.001823    0.002325   -0.059130 Ang=  -6.79 deg.
 ExpMin= 2.90D-02 ExpMax= 1.13D+05 ExpMxC= 1.70D+04 IAcc=3 IRadAn=         5 AccDes= 0.00D+00
 Harris functional with IExCor=  402 and IRadAn=       5 diagonalized for initial guess.
 HarFok:  IExCor=  402 AccDes= 0.00D+00 IRadAn=         5 IDoV= 1 UseB2=F ITyADJ=14
 ICtDFT=  3500011 ScaDFX=  1.000000  1.000000  1.000000  1.000000
 Defaulting to unpruned grid for atomic number  78.
 Defaulting to unpruned grid for atomic number  78.
 Defaulting to unpruned grid for atomic number  78.
 Defaulting to unpruned grid for atomic number  78.
 Defaulting to unpruned grid for atomic number  78.
 Defaulting to unpruned grid for atomic number  78.
 Defaulting to unpruned grid for atomic number  78.
 Defaulting to unpruned grid for atomic number  78.
 FoFCou: FMM=F IPFlag=           0 FMFlag=      100000 FMFlg1=           0
         NFxFlg=           0 DoJE=T BraDBF=F KetDBF=T FulRan=T
         wScrn=  0.000000 ICntrl=     500 IOpCl=  0 I1Cent=   200000004 NGrid=           0
         NMat0=    1 NMatS0=      1 NMatT0=    0 NMatD0=    1 NMtDS0=    0 NMtDT0=    0
 Petite list used in FoFCou.
 Keep R1 ints in memory in canonical form, NReq=192670991.
 Requested convergence on RMS density matrix=1.00D-08 within 128 cycles.
 Requested convergence on MAX density matrix=1.00D-06.
 Requested convergence on             energy=1.00D-06.
 No special actions if energy rises.
 Defaulting to unpruned grid for atomic number  78.
 Defaulting to unpruned grid for atomic number  78.
 Defaulting to unpruned grid for atomic number  78.
 Defaulting to unpruned grid for atomic number  78.
 Defaulting to unpruned grid for atomic number  78.
 Defaulting to unpruned grid for atomic number  78.
 Defaulting to unpruned grid for atomic number  78.
 Defaulting to unpruned grid for atomic number  78.
 Inv3:  Mode=1 IEnd=     8197227.
 Iteration    1 A*A^-1 deviation from unit magnitude is 6.44D-15 for    964.
 Iteration    1 A*A^-1 deviation from orthogonality  is 3.05D-15 for   1452    558.
 Iteration    1 A^-1*A deviation from unit magnitude is 6.66D-15 for     11.
 Iteration    1 A^-1*A deviation from orthogonality  is 3.60D-11 for    218    199.
 Error on total polarization charges =  0.01516
 SCF Done:  E(RB3LYP) =  -8966.33543415     A.U. after   16 cycles
            NFock= 16  Conv=0.23D-08     -V/T= 2.0106
   1 Symmetry operations used in ECPInt.
 ECPInt:  NShTT=    3081 NPrTT=   16147 LenC2=    2763 LenP2D=    9871.
 LDataN:  DoStor=T MaxTD1= 7 Len=  274
 D1PCM: PCM CHGder 1st derivatives, ID1Alg=3 FixD1E=F DoIter=F DoCFld=F I1PDM=0.
 Calling FoFJK, ICntrl=      2127 FMM=F ISym2X=0 I1Cent= 0 IOpClX= 0 NMat=1 NMatS=1 NMatT=0.
 Defaulting to unpruned grid for atomic number  78.
 Defaulting to unpruned grid for atomic number  78.
 Defaulting to unpruned grid for atomic number  78.
 Defaulting to unpruned grid for atomic number  78.
 Defaulting to unpruned grid for atomic number  78.
 Defaulting to unpruned grid for atomic number  78.
 Defaulting to unpruned grid for atomic number  78.
 Defaulting to unpruned grid for atomic number  78.
 ***** Axes restored to original set *****
 -------------------------------------------------------------------
 Center     Atomic                   Forces (Hartrees/Bohr)
 Number     Number              X              Y              Z
 -------------------------------------------------------------------
      1       78          -0.044916542    0.014487468    0.003053050
      2       35          -0.001566014   -0.000329583    0.001521282
      3       35           0.034945186   -0.000784792    0.002760141
      4       17          -0.001136792   -0.006624493   -0.001089262
      5       35          -0.000294035   -0.000354508   -0.001862095
      6       17          -0.000098787   -0.006002838   -0.000591285
      7        7           0.025587631   -0.001713054   -0.021444570
      8        8          -0.007125375   -0.008649543    0.008435367
      9        8          -0.005395272    0.009971343    0.009217371
 -------------------------------------------------------------------
 Cartesian Forces:  Max     0.044916542 RMS     0.013723707

 GradGradGradGradGradGradGradGradGradGradGradGradGradGradGradGradGradGrad
 Berny optimization.
 Using GEDIIS/GDIIS optimizer.
 FormGI is forming the generalized inverse of G from B-inverse, IUseBI=4.
 Internal  Forces:  Max     0.034986250 RMS     0.007713257
 Search for a local minimum.
 Step number   4 out of a maximum of   47
 All quantities printed in internal units (Hartrees-Bohrs-Radians)
 Mixed Optimization -- RFO/linear search
 Update second derivatives using D2CorX and points    3    4
 DE= -6.03D-02 DEPred=-6.79D-02 R= 8.88D-01
 TightC=F SS=  1.41D+00  RLast= 9.75D-01 DXNew= 8.4853D-01 2.9236D+00
 Trust test= 8.88D-01 RLast= 9.75D-01 DXMaxT set to 8.49D-01
 ITU=  1  0  1  0
 Use linear search instead of GDIIS.
     Eigenvalues ---    0.00230   0.01215   0.08467   0.08936   0.12333
     Eigenvalues ---    0.12617   0.12650   0.13322   0.15113   0.16758
     Eigenvalues ---    0.19509   0.19882   0.21579   0.24993   0.24998
     Eigenvalues ---    0.25016   0.26745   0.39035   0.52950   0.55741
     Eigenvalues ---    0.71235
 RFO step:  Lambda=-1.63069624D-02 EMin= 2.30001424D-03
 Quartic linear search produced a step of  0.26072.
 Iteration  1 RMS(Cart)=  0.07848465 RMS(Int)=  0.03518267
 Iteration  2 RMS(Cart)=  0.02599376 RMS(Int)=  0.01590173
 Iteration  3 RMS(Cart)=  0.00101427 RMS(Int)=  0.01585486
 Iteration  4 RMS(Cart)=  0.00001761 RMS(Int)=  0.01585484
 Iteration  5 RMS(Cart)=  0.00000049 RMS(Int)=  0.01585484
 Variable       Old X    -DE/DX   Delta X   Delta X   Delta X     New X
                                 (Linear)    (Quad)   (Total)
    R1        4.87187  -0.00155   0.03230  -0.04215  -0.00984   4.86202
    R2        4.56837   0.03499   0.08156  -0.02906   0.05250   4.62087
    R3        4.64851  -0.00666   0.03403  -0.06800  -0.03397   4.61454
    R4        4.86763  -0.00184   0.03169  -0.04339  -0.01170   4.85592
    R5        4.49585   0.00600   0.07335  -0.05591   0.01744   4.51329
    R6        4.30736  -0.01269   0.04835  -0.11316  -0.06481   4.24255
    R7        2.30216  -0.00607  -0.02060   0.00836  -0.01224   2.28992
    R8        2.30667  -0.00828  -0.02102   0.00395  -0.01707   2.28959
    A1        1.57407   0.00380   0.00207   0.02471   0.02678   1.60085
    A2        1.58213  -0.00051   0.00173  -0.00641  -0.00475   1.57739
    A3        1.59293  -0.00077   0.00059  -0.01014  -0.00956   1.58338
    A4        1.51143  -0.00146  -0.00732   0.00139  -0.00597   1.50547
    A5        1.53476   0.00306   0.00152   0.01880   0.02044   1.55520
    A6        1.63688  -0.00136   0.00616  -0.01212  -0.00599   1.63089
    A7        1.57935  -0.00162   0.00046  -0.01103  -0.01042   1.56893
    A8        1.54757   0.00100  -0.00168   0.01311   0.01131   1.55888
    A9        1.58343  -0.00044   0.00070  -0.00034   0.00038   1.58381
   A10        1.56254   0.00025  -0.00048   0.00316   0.00260   1.56515
   A11        1.56047  -0.00093  -0.00089  -0.01354  -0.01450   1.54596
   A12        1.58748  -0.00114  -0.00243  -0.00921  -0.01158   1.57590
   A13        2.01489   0.00975  -0.00895   0.11223   0.04822   2.06310
   A14        2.03291   0.00829  -0.00850   0.10643   0.04288   2.07580
   A15        2.18742  -0.01391   0.08148  -0.08878  -0.06371   2.12371
   A16        3.21096   0.00244   0.00823   0.01259   0.02078   3.23174
   A17        3.08551   0.00234  -0.00525   0.02609   0.02081   3.10632
[...]
 Rotational               0.889              2.981             33.422
 Vibrational             17.270             33.496             47.550
 Vibration     1          0.596              1.974              4.491
 Vibration     2          0.599              1.966              4.019
 Vibration     3          0.600              1.963              3.910
 Vibration     4          0.603              1.951              3.511
 Vibration     5          0.606              1.943              3.304
 Vibration     6          0.606              1.943              3.302
 Vibration     7          0.607              1.938              3.213
 Vibration     8          0.612              1.924              2.955
 Vibration     9          0.615              1.914              2.815
 Vibration    10          0.615              1.912              2.783
 Vibration    11          0.626              1.879              2.430
 Vibration    12          0.629              1.869              2.342
 Vibration    13          0.644              1.822              2.020
 Vibration    14          0.667              1.750              1.680
 Vibration    15          0.690              1.681              1.438
 Vibration    16          0.691              1.677              1.428
 Vibration    17          0.713              1.614              1.255
 Vibration    18          0.959              1.030              0.448
                       Q            Log10(Q)             Ln(Q)
 Total Bot       0.122293D+14         13.087401         30.134854
 Total V=0       0.511081D+21         20.708490         47.683060
 Vib (Bot)       0.540083D-02         -2.267539         -5.221202
 Vib (Bot)    1  0.350170D+01          0.544280          1.253250
 Vib (Bot)    2  0.274985D+01          0.439309          1.011546
 Vib (Bot)    3  0.260012D+01          0.414993          0.955556
 Vib (Bot)    4  0.211393D+01          0.325091          0.748550
 Vib (Bot)    5  0.189670D+01          0.277999          0.640116
 Vib (Bot)    6  0.189495D+01          0.277599          0.639195
 Vib (Bot)    7  0.180741D+01          0.257057          0.591895
 Vib (Bot)    8  0.157577D+01          0.197493          0.454744
 Vib (Bot)    9  0.146083D+01          0.164599          0.379002
 Vib (Bot)   10  0.143572D+01          0.157070          0.361668
 Vib (Bot)   11  0.118176D+01          0.072529          0.167005
 Vib (Bot)   12  0.112461D+01          0.051001          0.117434
 Vib (Bot)   13  0.932810D+00         -0.030207         -0.069554
 Vib (Bot)   14  0.755770D+00         -0.121610         -0.280018
 Vib (Bot)   15  0.643182D+00         -0.191666         -0.441328
 Vib (Bot)   16  0.638745D+00         -0.194672         -0.448249
 Vib (Bot)   17  0.564055D+00         -0.248678         -0.572603
 Vib (Bot)   18  0.248317D+00         -0.604994         -1.393051
 Vib (V=0)       0.225709D+06          5.353550         12.327003
 Vib (V=0)    1  0.403722D+01          0.606083          1.395557
 Vib (V=0)    2  0.329494D+01          0.517847          1.192387
 Vib (V=0)    3  0.314776D+01          0.498001          1.146690
 Vib (V=0)    4  0.267226D+01          0.426879          0.982924
 Vib (V=0)    5  0.246150D+01          0.391200          0.900770
 Vib (V=0)    6  0.245981D+01          0.390901          0.900084
 Vib (V=0)    7  0.237529D+01          0.375717          0.865121
 Vib (V=0)    8  0.215319D+01          0.333083          0.766952
 Vib (V=0)    9  0.204402D+01          0.310486          0.714921
 Vib (V=0)   10  0.202030D+01          0.305415          0.703244
 Vib (V=0)   11  0.178318D+01          0.251196          0.578400
 Vib (V=0)   12  0.173075D+01          0.238234          0.548554
 Vib (V=0)   13  0.155836D+01          0.192669          0.443636
 Vib (V=0)   14  0.140619D+01          0.148045          0.340887
 Vib (V=0)   15  0.131467D+01          0.118816          0.273584
 Vib (V=0)   16  0.131117D+01          0.117659          0.270919
 Vib (V=0)   17  0.125376D+01          0.098215          0.226149
 Vib (V=0)   18  0.105827D+01          0.024595          0.056632
 Electronic      0.100000D+01          0.000000          0.000000
 Translational   0.503745D+09          8.702210         20.037580
 Rotational      0.449500D+07          6.652730         15.318477
 ***** Axes restored to original set *****
 -------------------------------------------------------------------
 Center     Atomic                   Forces (Hartrees/Bohr)
 Number     Number              X              Y              Z
 -------------------------------------------------------------------
      1       78          -0.000086822   -0.000050078   -0.000056783
      2       35           0.000032456    0.000120879   -0.000023969
      3       35          -0.000025902    0.000001717   -0.000020347
      4       17           0.000008421    0.000093819    0.000137451
      5       35           0.000001900   -0.000125241    0.000089882
      6       17          -0.000009267   -0.000055979   -0.000143635
      7        7           0.000102041   -0.000000204    0.000069378
      8        8          -0.000013974    0.000020300    0.000055085
      9        8          -0.000008853   -0.000005212   -0.000107062
 -------------------------------------------------------------------
 Cartesian Forces:  Max     0.000143635 RMS     0.000071081
 FormGI is forming the generalized inverse of G from B-inverse, IUseBI=4.

 GradGradGradGradGradGradGradGradGradGradGradGradGradGradGradGradGradGrad
 Berny optimization.
 Internal  Forces:  Max     0.000086936 RMS     0.000035487
 Search for a local minimum.
 Step number   1 out of a maximum of    2
 All quantities printed in internal units (Hartrees-Bohrs-Radians)
 Second derivative matrix not updated -- analytic derivatives used.
 ITU=  0
     Eigenvalues ---    0.00264   0.04320   0.05748   0.05934   0.06435
     Eigenvalues ---    0.06950   0.07513   0.08629   0.08776   0.08975
     Eigenvalues ---    0.09526   0.10267   0.10329   0.11704   0.12628
     Eigenvalues ---    0.12725   0.14272   0.20250   0.32076   0.59679
     Eigenvalues ---    0.85307
 Angle between quadratic step and forces=  50.82 degrees.
 Linear search not attempted -- first point.
 Iteration  1 RMS(Cart)=  0.00065574 RMS(Int)=  0.00000020
 Iteration  2 RMS(Cart)=  0.00000019 RMS(Int)=  0.00000003
 Variable       Old X    -DE/DX   Delta X   Delta X   Delta X     New X
                                 (Linear)    (Quad)   (Total)
    R1        4.84447   0.00002   0.00000   0.00014   0.00014   4.84460
    R2        4.94745  -0.00003   0.00000  -0.00030  -0.00030   4.94715
    R3        4.55992   0.00009   0.00000   0.00080   0.00080   4.56072
    R4        4.84309   0.00008   0.00000   0.00103   0.00103   4.84412
    R5        4.56042   0.00004   0.00000   0.00031   0.00031   4.56074
    R6        3.99496  -0.00008   0.00000  -0.00097  -0.00097   3.99399
    R7        2.29433   0.00004   0.00000   0.00008   0.00008   2.29441
    R8        2.29426   0.00007   0.00000   0.00013   0.00013   2.29438
    A1        1.58107  -0.00006   0.00000  -0.00067  -0.00067   1.58040
    A2        1.55542   0.00002   0.00000   0.00023   0.00023   1.55565
    A3        1.58618  -0.00002   0.00000  -0.00027  -0.00027   1.58591
    A4        1.56129   0.00004   0.00000   0.00044   0.00044   1.56173
    A5        1.57031  -0.00003   0.00000  -0.00029  -0.00029   1.57002
    A6        1.57962   0.00001   0.00000   0.00001   0.00001   1.57964
    A7        1.56955   0.00003   0.00000   0.00032   0.00032   1.56986
    A8        1.58602  -0.00002   0.00000  -0.00018  -0.00018   1.58584
    A9        1.57155   0.00002   0.00000   0.00011   0.00011   1.57166
   A10        1.55561   0.00002   0.00000   0.00021   0.00021   1.55582
   A11        1.56120   0.00001   0.00000   0.00022   0.00022   1.56142
   A12        1.57178  -0.00002   0.00000  -0.00014  -0.00014   1.57164
   A13        2.05766   0.00000   0.00000   0.00007   0.00007   2.05774
   A14        2.05791  -0.00002   0.00000  -0.00004  -0.00004   2.05787
   A15        2.16761   0.00002   0.00000  -0.00004  -0.00004   2.16758
   A16        3.16070  -0.00005   0.00000  -0.00066  -0.00066   3.16004
   A17        3.14236  -0.00002   0.00000  -0.00023  -0.00023   3.14213
   A18        3.14159   0.00000   0.00000  -0.00004  -0.00004   3.14156
   A19        3.14143   0.00000   0.00000   0.00005   0.00005   3.14148
   A20        3.14134   0.00001   0.00000   0.00018   0.00018   3.14151
   A21        3.13986   0.00000   0.00000   0.00003   0.00003   3.13989
    D1       -2.23680   0.00000   0.00000  -0.00071  -0.00071  -2.23750
    D2        0.90554  -0.00002   0.00000  -0.00123  -0.00123   0.90431
    D3       -0.68139   0.00002   0.00000  -0.00047  -0.00047  -0.68186
    D4        2.46095   0.00000   0.00000  -0.00100  -0.00100   2.45995
    D5        0.90462   0.00000   0.00000  -0.00065  -0.00065   0.90397
    D6       -2.23622  -0.00002   0.00000  -0.00118  -0.00118  -2.23740
    D7        2.46022   0.00002   0.00000  -0.00044  -0.00044   2.45978
    D8       -0.68063   0.00000   0.00000  -0.00096  -0.00096  -0.68159
         Item               Value     Threshold  Converged?
 Maximum Force            0.000087     0.000450     YES
 RMS     Force            0.000035     0.000300     YES
 Maximum Displacement     0.001484     0.001800     YES
 RMS     Displacement     0.000656     0.001200     YES
 Predicted change in Energy=-2.228601D-07
 Optimization completed.
    -- Stationary point found.
                           ----------------------------
                           !   Optimized Parameters   !
                           ! (Angstroms and Degrees)  !
 --------------------------                            --------------------------
 ! Name  Definition              Value          Derivative Info.                !
 --------------------------------------------------------------------------------
 ! R1    R(1,2)                  2.5636         -DE/DX =    0.0                 !
 ! R2    R(1,3)                  2.6181         -DE/DX =    0.0                 !
 ! R3    R(1,4)                  2.413          -DE/DX =    0.0001              !
 ! R4    R(1,5)                  2.5629         -DE/DX =    0.0001              !
 ! R5    R(1,6)                  2.4133         -DE/DX =    0.0                 !
 ! R6    R(1,7)                  2.114          -DE/DX =   -0.0001              !
 ! R7    R(7,8)                  1.2141         -DE/DX =    0.0                 !
 ! R8    R(7,9)                  1.2141         -DE/DX =    0.0001              !
 ! A1    A(2,1,3)               90.5888         -DE/DX =   -0.0001              !
 ! A2    A(2,1,4)               89.1189         -DE/DX =    0.0                 !
 ! A3    A(2,1,6)               90.8811         -DE/DX =    0.0                 !
 ! A4    A(2,1,7)               89.4551         -DE/DX =    0.0                 !
 ! A5    A(3,1,4)               89.9723         -DE/DX =    0.0                 !
 ! A6    A(3,1,5)               90.5058         -DE/DX =    0.0                 !
 ! A7    A(3,1,6)               89.9283         -DE/DX =    0.0                 !
 ! A8    A(4,1,5)               90.8721         -DE/DX =    0.0                 !
 ! A9    A(4,1,7)               90.0431         -DE/DX =    0.0                 !
 ! A10   A(5,1,6)               89.1297         -DE/DX =    0.0                 !
 ! A11   A(5,1,7)               89.4504         -DE/DX =    0.0                 !
 ! A12   A(6,1,7)               90.0563         -DE/DX =    0.0                 !
 ! A13   A(1,7,8)              117.8953         -DE/DX =    0.0                 !
 ! A14   A(1,7,9)              117.9095         -DE/DX =    0.0                 !
 ! A15   A(8,7,9)              124.1951         -DE/DX =    0.0                 !
 ! A16   L(2,1,5,3,-1)         181.0946         -DE/DX =    0.0                 !
 ! A17   L(3,1,7,2,-1)         180.0439         -DE/DX =    0.0                 !
 ! A18   L(4,1,6,2,-1)         180.0            -DE/DX =    0.0                 !
 ! A19   L(2,1,5,3,-2)         179.9905         -DE/DX =    0.0                 !
 ! A20   L(3,1,7,2,-2)         179.9853         -DE/DX =    0.0                 !
 ! A21   L(4,1,6,2,-2)         179.9006         -DE/DX =    0.0                 !
 ! D1    D(2,1,7,8)           -128.1591         -DE/DX =    0.0                 !
 ! D2    D(2,1,7,9)             51.8837         -DE/DX =    0.0                 !
 ! D3    D(4,1,7,8)            -39.0407         -DE/DX =    0.0                 !
 ! D4    D(4,1,7,9)            141.0021         -DE/DX =    0.0                 !
 ! D5    D(5,1,7,8)             51.8311         -DE/DX =    0.0                 !
 ! D6    D(5,1,7,9)           -128.1261         -DE/DX =    0.0                 !
 ! D7    D(6,1,7,8)            140.9603         -DE/DX =    0.0                 !
 ! D8    D(6,1,7,9)            -38.997          -DE/DX =    0.0                 !
 --------------------------------------------------------------------------------
 GradGradGradGradGradGradGradGradGradGradGradGradGradGradGradGradGradGrad

 1\1\GINC-NEQC17\Freq\RB3LYP\Gen\Br3Cl2N1O2Pt1(2-)\DIEGO\18-Aug-2021\0\
 \#N Geom=AllCheck Guess=TCheck SCRF=Check GenChk RB3LYP/ChkBas Freq\\E
 strutura 33\\-2,1\Pt,-0.3195827448,0.3757483599,-0.0948761906\Br,-0.11
 88265028,0.2498558461,-2.6474831575\Br,2.2882114512,0.3863978582,0.136
 7166589\Cl,-0.3144253896,2.7837263545,-0.2504961173\Br,-0.5690529033,0
 .501833315,2.4526875982\Cl,-0.3205681104,-2.0324791719,0.0610896821\N,
 -2.4254597519,0.3666851801,-0.2802443712\O,-3.0494641953,1.2394793762,
 0.2879972312\O,-2.933437723,-0.5113019981,-0.9473710039\\Version=EM64L
 -G09RevD.01\State=1-A\HF=-8966.3493539\RMSD=1.769e-09\RMSF=7.108e-05\Z
 eroPoint=0.0165688\Thermal=0.0303547\Dipole=0.1436273,0.001197,0.01390
 81\DipoleDeriv=1.1378683,0.007522,-0.0322631,0.0083773,1.1470233,-0.10
 11722,-0.0318335,-0.0914887,1.5208433,-0.1513879,0.022207,0.0724549,0.
 0001352,-0.1186447,-0.0505379,0.1485061,-0.0535622,-1.4692512,-1.63877
 14,-0.0054629,-0.1249828,-0.0041945,-0.2418554,-0.0118269,-0.1259997,-
 0.0011321,-0.240701,-0.1635993,0.0134856,-0.0299246,-0.044539,-1.29181
 74,0.0790336,0.0004225,0.0807321,-0.1253104,-0.1522968,-0.0118579,0.16
 16781,0.0085474,-0.1177829,-0.050012,0.0857368,-0.0568983,-1.4644452,-
 0.1673376,-0.0185739,0.0219318,0.0385629,-1.2920391,0.0866135,-0.00927
 72,0.0777841,-0.1218775,3.2469009,-0.0673454,0.1891076,-0.0654674,1.62
 84507,0.8416439,0.186282,0.8475313,1.0780963,-2.1186429,0.4376069,0.14
 18769,0.6155575,-0.8526493,-0.3438552,0.2696008,-0.3644761,-0.5297521,
 -1.9927333,-0.3775814,-0.3998787,-0.5569794,-0.8606852,-0.4498867,-0.5
 234377,-0.4384902,-0.6476022\Polar=225.6758026,-0.654477,190.0555695,-
 1.7738509,8.9248428,245.9420086\PG=C01 [X(Br3Cl2N1O2Pt1)]\NImag=0\\0.1
 7965344,-0.00095553,0.26152848,-0.00346828,0.00632526,0.21775615,-0.01
 207663,0.00004746,0.00324776,0.01451815,0.00071988,-0.01425069,-0.0030
 3117,-0.00007657,0.01278150,0.00449808,-0.00349374,-0.06525837,-0.0061
 3943,0.00314174,0.07885015,-0.04949804,-0.00007190,-0.00286432,-0.0010
 3395,0.00121892,-0.00313954,0.06670114,-0.00008277,-0.01707293,-0.0005
 9484,0.00106640,0.00121727,0.00014926,0.00023116,0.01143881,-0.0028797
 5,-0.00078170,-0.01708893,-0.00526274,0.00019531,-0.00037287,0.0052157
 1,-0.00034167,0.01143801,-0.01446218,0.00181092,0.00040702,-0.00026051
 ,0.00001928,-0.00002106,-0.00241878,0.00490131,-0.00062983,0.01823970,
 0.00053476,-0.08768358,0.00356157,0.00018759,-0.00199225,-0.00264536,0
 .00240607,-0.00129923,0.00041559,0.00000131,0.10426991,-0.00035242,0.0
 0435331,-0.01795623,0.00032412,-0.00527558,-0.00078275,-0.00037800,0.0
 0057099,-0.00022584,-0.00034357,-0.00535603,0.01536681,-0.01237954,0.0
 0056620,0.00619847,0.00262490,0.00004400,0.00111056,-0.00260729,-0.001
 07693,0.00456856,0.00042194,0.00029832,-0.00009450,0.01443614,-0.00016
 455,-0.01425424,-0.00311638,0.00003356,0.00283390,-0.00044886,-0.00120
 449,0.00111091,-0.00023586,0.00010632,-0.00050488,0.00529010,-0.000523
 60,0.01284376,0.00494383,-0.00345352,-0.06520446,0.00118397,-0.0004446
 4,-0.01026989,0.00246205,-0.00026667,0.00093582,-0.00015846,0.00300513
 ,-0.00038210,-0.00504969,0.00343970,0.07945268,-0.01455832,-0.00186746
 ,0.00016276,0.00033985,-0.00097537,0.00029845,-0.00239445,-0.00491904,
 0.00024465,0.00370108,0.00000668,-0.00002513,-0.00009103,0.00085584,0.
 00013324,0.01782659,-0.00047693,-0.08760380,0.00346010,-0.00074685,-0.
 00053157,0.00291426,-0.00246885,-0.00124180,0.00011264,-0.00008329,-0.
 01077007,0.00111549,0.00025124,-0.00190171,-0.00265316,0.00020683,0.10
 389378,0.00092588,0.00402774,-0.01786954,0.00021481,0.00520683,-0.0003
 1270,-0.00003362,-0.00017659,-0.00000623,-0.00001541,0.00112311,0.0038
 7500,-0.00015888,-0.00520463,-0.00084565,0.00088714,-0.00544860,0.0155
 5399,-0.06275585,-0.00127946,-0.00147753,-0.00514843,-0.00016828,0.001
 69455,0.02088443,0.00011060,0.00124990,-0.00583225,-0.00124715,0.00029
 238,-0.00426374,0.00033837,-0.00232606,-0.00511300,0.00115460,-0.00117
 458,0.54651997,-0.00129246,-0.03898225,0.01332335,-0.00267628,-0.00055
 594,0.00006567,0.00013830,0.00660264,-0.00066473,-0.00055078,-0.000378
 63,-0.00155648,0.00258153,-0.00053378,0.00048944,0.00075815,-0.0003239
 0,-0.00143544,-0.03254563,0.67608632,-0.00138603,0.01376091,-0.0468759
 0,0.00281963,-0.00117758,-0.00080422,0.00117176,-0.00069778,0.00723253
 ,0.00300568,0.00018424,-0.00002607,-0.00343522,-0.00115809,-0.00172638
 ,-0.00391355,0.00038416,-0.00075837,0.00968971,0.36620009,0.41783677,-
 0.00854751,0.01950497,0.01144067,0.00086960,-0.00011054,0.00020885,-0.
 01511057,-0.00148167,-0.00221983,-0.00020937,-0.00187382,0.00065300,0.
 00101659,0.00052013,-0.00109428,0.00061574,0.00027963,0.00014747,-0.26
 515526,0.19396775,0.12029264,0.23793511,0.00599385,-0.00072911,-0.0094
 6499,0.00057591,0.00043986,0.00034490,0.00575173,-0.00036078,0.0011712
 8,-0.00566601,-0.00181643,0.00040544,-0.00152193,-0.00003242,-0.000371
 05,0.00045996,0.00016947,0.00053905,0.18731878,-0.31930161,-0.17320216
 ,-0.20939780,0.41331481,0.00294854,-0.00871245,0.00771631,-0.00030995,
 0.00042491,0.00024969,0.00290759,0.00057551,-0.00067060,-0.00124684,-0
 .00047655,-0.00004789,-0.00355120,0.00099115,-0.00225557,0.00107447,0.
 00023769,0.00038008,0.11477641,-0.17212019,-0.16598612,-0.13078024,0.2
 5870852,0.19605138,-0.00537538,-0.01775519,-0.01364657,0.00016702,-0.0
 0067132,0.00148955,-0.01452250,0.00125094,-0.00028668,0.00082037,-0.00
 031376,-0.00007589,0.00084203,0.00003841,-0.00009459,-0.00032647,0.001
 88362,-0.00079280,-0.21913587,-0.16038059,-0.12824462,0.04858566,0.016
 48552,0.01418121,0.18894513,-0.00427626,-0.00095189,-0.01046291,0.0015
 8878,0.00005791,-0.00002786,-0.00600095,-0.00039489,0.00012915,-0.0005
 3906,0.00017516,0.00045277,-0.00061882,0.00043846,0.00025476,0.0054744
 3,-0.00169039,0.00136853,-0.15368183,-0.32261283,-0.20429379,-0.001408
 67,-0.09168379,-0.07962859,0.15946236,0.41666226,-0.00522985,-0.012025
 81,0.00478097,0.00392182,0.00096018,-0.00129905,-0.00534163,0.00078177
 ,-0.00124189,-0.00099752,0.00018831,0.00017906,0.00041190,0.00044288,0
 .00029556,0.00113797,-0.00012258,-0.00001658,-0.12272480,-0.20430169,-
 0.20889224,0.00135172,-0.07813099,-0.03543729,0.12747039,0.29220794,0.
 24163147\\0.00008682,0.00005008,0.00005678,-0.00003246,-0.00012088,0.0
 0002397,0.00002590,-0.00000172,0.00002035,-0.00000842,-0.00009382,-0.0
 0013745,-0.00000190,0.00012524,-0.00008988,0.00000927,0.00005598,0.000
 14363,-0.00010204,0.00000020,-0.00006938,0.00001397,-0.00002030,-0.000
 05509,0.00000885,0.00000521,0.00010706\\\@


 WHEN HAVING A MEETING OF THE MINDS,
 MAKE SURE YOU HAVE THE EQUIPMENT FOR IT.
 Job cpu time:       0 days  0 hours 15 minutes 18.5 seconds.
 File lengths (MBytes):  RWF=    112 Int=      0 D2E=      0 Chk=      7 Scr=      1
 Normal termination of Gaussian 09 at Wed Aug 18 04:58:19 2021.
