 Entering Gaussian System, Link 0=g09
 Input=34_D2O.com
 Output=34_D2O.log
 Initial command:
 /scr/programs/g09/l1.exe /scr/guest/Gau-2266.inp -scrdir=/scr/guest/
 Entering Link 1 = /scr/programs/g09/l1.exe PID=      2267.
  
 Copyright (c) 1988,1990,1992,1993,1995,1998,2003,2009, Gaussian, Inc.
                  All Rights Reserved.
  
 This is part of the Gaussian(R) 09 program.  It is based on
 the Gaussian(R) 03 system (copyright 2003, Gaussian, Inc.),
 the Gaussian(R) 98 system (copyright 1998, Gaussian, Inc.),
 the Gaussian(R) 94 system (copyright 1995, Gaussian, Inc.),
 the Gaussian 92(TM) system (copyright 1992, Gaussian, Inc.),
 the Gaussian 90(TM) system (copyright 1990, Gaussian, Inc.),
 the Gaussian 88(TM) system (copyright 1988, Gaussian, Inc.),
 the Gaussian 86(TM) system (copyright 1986, Carnegie Mellon
 University), and the Gaussian 82(TM) system (copyright 1983,
 Carnegie Mellon University). Gaussian is a federally registered
 trademark of Gaussian, Inc.
  
 This software contains proprietary and confidential information,
 including trade secrets, belonging to Gaussian, Inc.
  
 This software is provided under written license and may be
 used, copied, transmitted, or stored only in accord with that
 written license.
  
 The following legend is applicable only to US Government
 contracts under FAR:
  
                    RESTRICTED RIGHTS LEGEND
  
 Use, reproduction and disclosure by the US Government is
 subject to restrictions as set forth in subparagraphs (a)
 and (c) of the Commercial Computer Software - Restricted
 Rights clause in FAR 52.227-19.
  
 Gaussian, Inc.
 340 Quinnipiac St., Bldg. 40, Wallingford CT 06492
  
  
 ---------------------------------------------------------------
 Warning -- This program may not be used in any manner that
 competes with the business of Gaussian, Inc. or will provide
 assistance to any competitor of Gaussian, Inc.  The licensee
 of this program is prohibited from giving any competitor of
 Gaussian, Inc. access to this program.  By using this program,
 the user acknowledges that Gaussian, Inc. is engaged in the
 business of creating and licensing software in the field of
 computational chemistry and represents and warrants to the
 licensee that it is not a competitor of Gaussian, Inc. and that
 it will not use this program in any manner prohibited above.
 ---------------------------------------------------------------
  

 Cite this work as:
 Gaussian 09, Revision A.02,
 M. J. Frisch, G. W. Trucks, H. B. Schlegel, G. E. Scuseria, 
 M. A. Robb, J. R. Cheeseman, G. Scalmani, V. Barone, B. Mennucci, 
 G. A. Petersson, H. Nakatsuji, M. Caricato, X. Li, H. P. Hratchian, 
 A. F. Izmaylov, J. Bloino, G. Zheng, J. L. Sonnenberg, M. Hada, 
 M. Ehara, K. Toyota, R. Fukuda, J. Hasegawa, M. Ishida, T. Nakajima, 
 Y. Honda, O. Kitao, H. Nakai, T. Vreven, J. A. Montgomery, Jr., 
 J. E. Peralta, F. Ogliaro, M. Bearpark, J. J. Heyd, E. Brothers, 
 K. N. Kudin, V. N. Staroverov, R. Kobayashi, J. Normand, 
 K. Raghavachari, A. Rendell, J. C. Burant, S. S. Iyengar, J. Tomasi, 
 M. Cossi, N. Rega, J. M. Millam, M. Klene, J. E. Knox, J. B. Cross, 
 V. Bakken, C. Adamo, J. Jaramillo, R. Gomperts, R. E. Stratmann, 
 O. Yazyev, A. J. Austin, R. Cammi, C. Pomelli, J. W. Ochterski, 
 R. L. Martin, K. Morokuma, V. G. Zakrzewski, G. A. Voth, 
 P. Salvador, J. J. Dannenberg, S. Dapprich, A. D. Daniels, 
 O. Farkas, J. B. Foresman, J. V. Ortiz, J. Cioslowski, 
 and D. J. Fox, Gaussian, Inc., Wallingford CT, 2009.
 
 ******************************************
 Gaussian 09:  EM64L-G09RevA.02 11-Jun-2009
                 1-Dec-2021 
 ******************************************
 %mem=30gb
 %nproc=24
 Will use up to   24 processors via shared memory.
 ------------------------------------------------------------
 #b3lyp/gen pseudo=read opt freq=noraman scrf=(solvent=water)
 ------------------------------------------------------------
 1/14=-1,18=20,19=15,26=3,38=1/1,3;
 2/9=110,12=2,17=6,18=5,40=1/2;
 3/5=7,11=2,16=1,17=8,25=1,30=1,70=2201,71=1,72=1,74=-5/1,2,3;
 4//1;
 5/5=2,38=5,53=1/2;
 6/7=2,8=2,9=2,10=2,28=1/1;
 7//1,2,3,16;
 1/14=-1,18=20,19=15/3(2);
 2/9=110/2;
 99//99;
 2/9=110/2;
 3/5=7,6=1,11=2,16=1,17=8,25=1,30=1,70=2205,71=1,72=1,74=-5,82=7/1,2,3;
 4/5=5,16=3/1;
 5/5=2,38=5,53=1/2;
 7//1,2,3,16;
 1/14=-1,18=20,19=15/3(-5);
 2/9=110/2;
 6/7=2,8=2,9=2,10=2,19=2,28=1/1;
 99/9=1/99;
 ------------
 Estrutura 34
 ------------
 Symbolic Z-matrix:
 Charge = -2 Multiplicity = 1
 Pt                   -0.31955   0.33835   0. 
 Br                   -0.31955   0.33835  -2.43 
 Br                    1.67045   0.33835   0. 
 N                    -0.31955  -1.65165   0. 
 O                    -1.53658  -2.10499  -0.40365 
 O                    -0.06061  -2.10499   1.2558 
 Cl                   -0.31955   2.61835   0. 
 Br                   -0.31955   0.33835   2.43 
 Br                   -2.74955   0.33835   0. 
 

 GradGradGradGradGradGradGradGradGradGradGradGradGradGradGradGradGradGrad
 Berny optimization.
 Initialization pass.
                           ----------------------------
                           !    Initial Parameters    !
                           ! (Angstroms and Degrees)  !
 --------------------------                            --------------------------
 ! Name  Definition              Value          Derivative Info.                !
 --------------------------------------------------------------------------------
 ! R1    R(1,2)                  2.43           estimate D2E/DX2                !
 ! R2    R(1,3)                  1.99           estimate D2E/DX2                !
 ! R3    R(1,4)                  1.99           estimate D2E/DX2                !
 ! R4    R(1,7)                  2.28           estimate D2E/DX2                !
 ! R5    R(1,8)                  2.43           estimate D2E/DX2                !
 ! R6    R(1,9)                  2.43           estimate D2E/DX2                !
 ! R7    R(4,5)                  1.36           estimate D2E/DX2                !
 ! R8    R(4,6)                  1.36           estimate D2E/DX2                !
 ! A1    A(2,1,3)               90.0            estimate D2E/DX2                !
 ! A2    A(2,1,4)               90.0            estimate D2E/DX2                !
 ! A3    A(2,1,7)               90.0            estimate D2E/DX2                !
 ! A4    A(2,1,9)               90.0            estimate D2E/DX2                !
 ! A5    A(3,1,4)               90.0            estimate D2E/DX2                !
 ! A6    A(3,1,7)               90.0            estimate D2E/DX2                !
 ! A7    A(3,1,8)               90.0            estimate D2E/DX2                !
 ! A8    A(4,1,8)               90.0            estimate D2E/DX2                !
 ! A9    A(4,1,9)               90.0            estimate D2E/DX2                !
 ! A10   A(7,1,8)               90.0            estimate D2E/DX2                !
 ! A11   A(7,1,9)               90.0            estimate D2E/DX2                !
 ! A12   A(8,1,9)               90.0            estimate D2E/DX2                !
 ! A13   A(1,4,5)              109.4712         estimate D2E/DX2                !
 ! A14   A(1,4,6)              109.4712         estimate D2E/DX2                !
 ! A15   A(5,4,6)              109.4713         estimate D2E/DX2                !
 ! D1    D(2,1,4,5)            -71.6508         estimate D2E/DX2                !
 ! D2    D(2,1,4,6)            168.3492         estimate D2E/DX2                !
 ! D3    D(3,1,4,5)           -161.6508         estimate D2E/DX2                !
 ! D4    D(3,1,4,6)             78.3492         estimate D2E/DX2                !
 ! D5    D(8,1,4,5)            108.3492         estimate D2E/DX2                !
 ! D6    D(8,1,4,6)            -11.6508         estimate D2E/DX2                !
 ! D7    D(9,1,4,5)             18.3492         estimate D2E/DX2                !
 ! D8    D(9,1,4,6)           -101.6508         estimate D2E/DX2                !
 --------------------------------------------------------------------------------
 Trust Radius=3.00D-01 FncErr=1.00D-07 GrdErr=1.00D-06
 Number of steps in this run=  41 maximum allowed number of steps= 100.
 GradGradGradGradGradGradGradGradGradGradGradGradGradGradGradGradGradGrad

                          Input orientation:                          
 ---------------------------------------------------------------------
 Center     Atomic      Atomic             Coordinates (Angstroms)
 Number     Number       Type             X           Y           Z
 ---------------------------------------------------------------------
      1         78           0       -0.319549    0.338346    0.000000
      2         35           0       -0.319549    0.338346   -2.430000
      3         35           0        1.670451    0.338346    0.000000
      4          7           0       -0.319549   -1.651654    0.000000
      5          8           0       -1.536575   -2.104987   -0.403653
      6          8           0       -0.060609   -2.104987    1.255802
      7         17           0       -0.319549    2.618346    0.000000
      8         35           0       -0.319549    0.338346    2.430000
      9         35           0       -2.749549    0.338346    0.000000
 ---------------------------------------------------------------------
                    Distance matrix (angstroms):
                    1          2          3          4          5
     1  Pt   0.000000
     2  Br   2.430000   0.000000
     3  Br   1.990000   3.140860   0.000000
     4  N    1.990000   3.140860   2.814285   0.000000
     5  O    2.759341   3.399575   4.051892   1.360000   0.000000
     6  O    2.759341   4.429680   3.247073   1.360000   2.220871
     7  Cl   2.280000   3.332161   3.026301   4.270000   4.894279
     8  Br   2.430000   4.860000   3.140860   3.140860   3.934542
     9  Br   2.430000   3.436539   4.420000   3.140860   2.757556
                    6          7          8          9
     6  O    0.000000
     7  Cl   4.894279   0.000000
     8  Br   2.723172   3.332161   0.000000
     9  Br   3.844127   3.332161   3.436539   0.000000
 Stoichiometry    Br4ClNO2Pt(2-)
 Framework group  C1[X(Br4ClNO2Pt)]
 Deg. of freedom    21
 Full point group                 C1      NOp   1
 Largest Abelian subgroup         C1      NOp   1
 Largest concise Abelian subgroup C1      NOp   1
                         Standard orientation:                         
 ---------------------------------------------------------------------
 Center     Atomic      Atomic             Coordinates (Angstroms)
 Number     Number       Type             X           Y           Z
 ---------------------------------------------------------------------
      1         78           0       -0.022794   -0.097312   -0.041920
      2         35           0       -2.439225   -0.271990    0.145836
      3         35           0        0.138140   -2.066294    0.197479
      4          7           0        0.112132    0.153184    1.927635
      5          8           0       -0.356953    1.385405    2.261090
      6          8           0        1.412599    0.044316    2.310430
      7         17           0       -0.177383   -0.384313   -2.298495
      8         35           0        2.393636    0.077365   -0.229676
      9         35           0       -0.219312    2.307022   -0.334251
 ---------------------------------------------------------------------
 Rotational constants (GHZ):      0.4131612      0.3651507      0.2864919
 General basis read from cards:  (5D, 7F)
 ======================================================================================================
                                       Pseudopotential Parameters
 ======================================================================================================
  Center     Atomic      Valence      Angular      Power
  Number     Number     Electrons     Momentum     of R      Exponent        Coefficient   SO-Coeffient
 ======================================================================================================
    1         78           18
                                      G and up 
                                                     1      728.9394056       -0.16192680    0.00000000
                                                     2      320.6567800    -1320.28738520    0.00000000
                                                     2       52.8680174     -298.31781350    0.00000000
                                                     2       12.0280128      -87.58370650    0.00000000
                                                     2        3.5238913       -8.14932740    0.00000000
                                      S - G
                                                     0      409.4437358        2.73342180    0.00000000
                                                     1      274.5419231       59.70243290    0.00000000
                                                     2      127.5658570      891.45895500    0.00000000
                                                     2       32.9036631      368.44676560    0.00000000
                                                     2        5.0593880      238.02630900    0.00000000
                                                     2        4.1506556     -107.05564540    0.00000000
                                      P - G
                                                     0      466.1728892        1.88785680    0.00000000
                                                     1      120.7888259       76.01386290    0.00000000
                                                     2       36.4118791      343.55111160    0.00000000
                                                     2        5.6985408      119.49117860    0.00000000
                                      D - G
                                                     0      249.5650763        2.93436780    0.00000000
                                                     1      126.6678585       59.33065710    0.00000000
                                                     2       63.1430586      452.44451940    0.00000000
                                                     2       17.9059470      210.47694790    0.00000000
                                                     2        4.2239373       58.62541120    0.00000000
                                      F - G
                                                     0      121.8158799        3.95342530    0.00000000
                                                     1       60.8757030       53.85551820    0.00000000
                                                     2       31.4767147      247.43051330    0.00000000
                                                     2        9.8811751      127.81879760    0.00000000
                                                     2        2.7319874       15.37720460    0.00000000
    2         35
                                   No pseudopotential on this center.
    3         35
                                   No pseudopotential on this center.
    4          7
                                   No pseudopotential on this center.
    5          8
                                   No pseudopotential on this center.
    6          8
                                   No pseudopotential on this center.
    7         17
                                   No pseudopotential on this center.
    8         35
                                   No pseudopotential on this center.
    9         35
                                   No pseudopotential on this center.
 ======================================================================================================
 There are   210 symmetry adapted basis functions of A   symmetry.
 Integral buffers will be    131072 words long.
 Raffenetti 2 integral format.
 Two-electron integral symmetry is turned on.
   210 basis functions,   475 primitive gaussians,   228 cartesian basis functions
   100 alpha electrons      100 beta electrons
       nuclear repulsion energy      2812.9406661913 Hartrees.
 NAtoms=    9 NActive=    9 NUniq=    9 SFac= 7.50D-01 NAtFMM=   80 NAOKFM=F Big=F
 ------------------------------------------------------------------------------
 Polarizable Continuum Model (PCM)
 =================================
 Model                : PCM.
 Atomic radii         : UFF (Universal Force Field).
 Polarization charges : Total charges.
 Charge compensation  : None.
 Solution method      : Matrix inversion.
 Cavity type          : Scaled VdW (van der Waals Surface) (Alpha=1.100).
 Cavity algorithm     : GePol (No added spheres)
                        Default sphere list used, NSphG=    9.
                        Lebedev-Laikov grids with approx.  5.0 points / Ang**2.
                        Smoothing algorithm: Karplus/York (Gamma=1.0000).
                        Polarization charges: spherical gaussians, with
                                              point-specific exponents (IZeta= 3).
                        Self-potential: point-specific (ISelfS= 7).
                        Self-field    : sphere-specific E.n sum rule (ISelfD= 2).
 1st derivatives      : Analytical E(r).r(x)/FMM algorithm (CHGder, D1EAlg=3).
                        Cavity 1st derivative terms included.
 Solvent              : Water, Eps=  78.355300 Eps(inf)=   1.777849
 ------------------------------------------------------------------------------
 Spheres list:
 ISph  on   Nord    Re0     Alpha      Xe            Ye            Ze
    1  Pt      1    1.377   1.100     -0.022794     -0.097312     -0.041920
    2  Br      2    2.095   1.100     -2.439225     -0.271990      0.145836
    3  Br      3    2.095   1.100      0.138140     -2.066294      0.197479
    4   N      4    1.830   1.100      0.112132      0.153184      1.927635
    5   O      5    1.750   1.100     -0.356953      1.385405      2.261090
    6   O      6    1.750   1.100      1.412599      0.044316      2.310430
    7  Cl      7    1.974   1.100     -0.177383     -0.384313     -2.298495
    8  Br      8    2.095   1.100      2.393636      0.077365     -0.229676
    9  Br      9    2.095   1.100     -0.219312      2.307022     -0.334251
 ------------------------------------------------------------------------------
 One-electron integrals computed using PRISM.
   1 Symmetry operations used in ECPInt.
 ECPInt:  NShTT=    3403 NPrTT=   18378 LenC2=    3099 LenP2D=   11396.
 LDataN:  DoStor=T MaxTD1= 6 Len=  172
 NBasis=   210 RedAO= T  NBF=   210
 NBsUse=   210 1.00D-06 NBFU=   210
 Defaulting to unpruned grid for atomic number  78.
 Harris functional with IExCor=  402 diagonalized for initial guess.
 ExpMin= 2.90D-02 ExpMax= 1.13D+05 ExpMxC= 1.70D+04 IAcc=3 IRadAn=         0 AccDes= 0.00D+00
 HarFok:  IExCor=  402 AccDes= 0.00D+00 IRadAn=         0 IDoV= 1
 ScaDFX=  1.000000  1.000000  1.000000  1.000000
 Defaulting to unpruned grid for atomic number  78.
 Defaulting to unpruned grid for atomic number  78.
 Defaulting to unpruned grid for atomic number  78.
 Defaulting to unpruned grid for atomic number  78.
 Defaulting to unpruned grid for atomic number  78.
 Defaulting to unpruned grid for atomic number  78.
 Defaulting to unpruned grid for atomic number  78.
 Defaulting to unpruned grid for atomic number  78.
 Defaulting to unpruned grid for atomic number  78.
 Defaulting to unpruned grid for atomic number  78.
 Defaulting to unpruned grid for atomic number  78.
 Defaulting to unpruned grid for atomic number  78.
 Defaulting to unpruned grid for atomic number  78.
 Defaulting to unpruned grid for atomic number  78.
 Defaulting to unpruned grid for atomic number  78.
 Defaulting to unpruned grid for atomic number  78.
 Defaulting to unpruned grid for atomic number  78.
 Defaulting to unpruned grid for atomic number  78.
 Defaulting to unpruned grid for atomic number  78.
 Defaulting to unpruned grid for atomic number  78.
 Defaulting to unpruned grid for atomic number  78.
 Defaulting to unpruned grid for atomic number  78.
 Defaulting to unpruned grid for atomic number  78.
 Defaulting to unpruned grid for atomic number  78.
 FoFCou: FMM=F IPFlag=           0 FMFlag=      100000 FMFlg1=           0
         NFxFlg=           0 DoJE=T BraDBF=F KetDBF=T FulRan=T
         Omega=  0.000000  0.000000  1.000000  0.000000  0.000000 ICntrl=     500 IOpCl=  0
         NMat0=    1 NMatS0=    1 NMatT0=    0 NMatD0=    1 NMtDS0=    0 NMtDT0=    0
         I1Cent=           4 NGrid=           0.
 Petite list used in FoFCou.
 Initial guess orbital symmetries:
       Occupied  (A) (A) (A) (A) (A) (A) (A) (A) (A) (A) (A) (A)
                 (A) (A) (A) (A) (A) (A) (A) (A) (A) (A) (A) (A)
                 (A) (A) (A) (A) (A) (A) (A) (A) (A) (A) (A) (A)
                 (A) (A) (A) (A) (A) (A) (A) (A) (A) (A) (A) (A)
                 (A) (A) (A) (A) (A) (A) (A) (A) (A) (A) (A) (A)
                 (A) (A) (A) (A) (A) (A) (A) (A) (A) (A) (A) (A)
                 (A) (A) (A) (A) (A) (A) (A) (A) (A) (A) (A) (A)
                 (A) (A) (A) (A) (A) (A) (A) (A) (A) (A) (A) (A)
                 (A) (A) (A) (A)
       Virtual   (A) (A) (A) (A) (A) (A) (A) (A) (A) (A) (A) (A)
                 (A) (A) (A) (A) (A) (A) (A) (A) (A) (A) (A) (A)
                 (A) (A) (A) (A) (A) (A) (A) (A) (A) (A) (A) (A)
                 (A) (A) (A) (A) (A) (A) (A) (A) (A) (A) (A) (A)
                 (A) (A) (A) (A) (A) (A) (A) (A) (A) (A) (A) (A)
                 (A) (A) (A) (A) (A) (A) (A) (A) (A) (A) (A) (A)
                 (A) (A) (A) (A) (A) (A) (A) (A) (A) (A) (A) (A)
                 (A) (A) (A) (A) (A) (A) (A) (A) (A) (A) (A) (A)
                 (A) (A) (A) (A) (A) (A) (A) (A) (A) (A) (A) (A)
                 (A) (A)
 The electronic state of the initial guess is 1-A.
 Requested convergence on RMS density matrix=1.00D-08 within 128 cycles.
 Requested convergence on MAX density matrix=1.00D-06.
 Requested convergence on             energy=1.00D-06.
 No special actions if energy rises.
 Keep R1 ints in memory in canonical form, NReq=347066959.
 Defaulting to unpruned grid for atomic number  78.
 Defaulting to unpruned grid for atomic number  78.
 Defaulting to unpruned grid for atomic number  78.
 Defaulting to unpruned grid for atomic number  78.
 Defaulting to unpruned grid for atomic number  78.
 Defaulting to unpruned grid for atomic number  78.
 Defaulting to unpruned grid for atomic number  78.
 Defaulting to unpruned grid for atomic number  78.
 Defaulting to unpruned grid for atomic number  78.
 Defaulting to unpruned grid for atomic number  78.
 Defaulting to unpruned grid for atomic number  78.
 Defaulting to unpruned grid for atomic number  78.
 Defaulting to unpruned grid for atomic number  78.
 Defaulting to unpruned grid for atomic number  78.
 Defaulting to unpruned grid for atomic number  78.
 Defaulting to unpruned grid for atomic number  78.
 Defaulting to unpruned grid for atomic number  78.
 Defaulting to unpruned grid for atomic number  78.
 Defaulting to unpruned grid for atomic number  78.
 Defaulting to unpruned grid for atomic number  78.
 Defaulting to unpruned grid for atomic number  78.
 Defaulting to unpruned grid for atomic number  78.
 Defaulting to unpruned grid for atomic number  78.
 Defaulting to unpruned grid for atomic number  78.
 EnCoef did   100 forward-backward iterations
 EnCoef did   100 forward-backward iterations
 EnCoef did     1 forward-backward iterations
 EnCoef did     4 forward-backward iterations
 EnCoef did     5 forward-backward iterations
 Error on total polarization charges =  0.01774
 SCF Done:  E(RB3LYP) =  -11079.9119412     A.U. after   22 cycles
             Convg  =    0.6246D-08             -V/T =  2.0086

 **********************************************************************

            Population analysis using the SCF density.

 **********************************************************************

 Orbital symmetries:
       Occupied  (A) (A) (A) (A) (A) (A) (A) (A) (A) (A) (A) (A)
                 (A) (A) (A) (A) (A) (A) (A) (A) (A) (A) (A) (A)
                 (A) (A) (A) (A) (A) (A) (A) (A) (A) (A) (A) (A)
                 (A) (A) (A) (A) (A) (A) (A) (A) (A) (A) (A) (A)
                 (A) (A) (A) (A) (A) (A) (A) (A) (A) (A) (A) (A)
                 (A) (A) (A) (A) (A) (A) (A) (A) (A) (A) (A) (A)
                 (A) (A) (A) (A) (A) (A) (A) (A) (A) (A) (A) (A)
                 (A) (A) (A) (A) (A) (A) (A) (A) (A) (A) (A) (A)
                 (A) (A) (A) (A)
       Virtual   (A) (A) (A) (A) (A) (A) (A) (A) (A) (A) (A) (A)
                 (A) (A) (A) (A) (A) (A) (A) (A) (A) (A) (A) (A)
                 (A) (A) (A) (A) (A) (A) (A) (A) (A) (A) (A) (A)
                 (A) (A) (A) (A) (A) (A) (A) (A) (A) (A) (A) (A)
                 (A) (A) (A) (A) (A) (A) (A) (A) (A) (A) (A) (A)
                 (A) (A) (A) (A) (A) (A) (A) (A) (A) (A) (A) (A)
                 (A) (A) (A) (A) (A) (A) (A) (A) (A) (A) (A) (A)
                 (A) (A) (A) (A) (A) (A) (A) (A) (A) (A) (A) (A)
                 (A) (A) (A) (A) (A) (A) (A) (A) (A) (A) (A) (A)
                 (A) (A)
 The electronic state is 1-A.
 Alpha  occ. eigenvalues -- -482.74966-482.74703-482.74480-482.72044-101.45049
 Alpha  occ. eigenvalues --  -62.43513 -62.42877 -62.42648 -62.40236 -56.26653
 Alpha  occ. eigenvalues --  -56.26360 -56.26353 -56.26069 -56.25845 -56.25772
 Alpha  occ. eigenvalues --  -56.25768 -56.25544 -56.25535 -56.23362 -56.23169
 Alpha  occ. eigenvalues --  -56.23154 -19.13398 -19.13291 -14.47979  -9.40439
 Alpha  occ. eigenvalues --   -8.65806  -8.64657  -8.64430  -8.62023  -7.17241
 Alpha  occ. eigenvalues --   -7.16393  -7.16388  -6.49268  -6.47867  -6.47825
 Alpha  occ. eigenvalues --   -6.47802  -6.47653  -6.46785  -6.46773  -6.46560
 Alpha  occ. eigenvalues --   -6.46529  -6.45027  -6.44281  -6.44229  -4.02637
 Alpha  occ. eigenvalues --   -2.60845  -2.60303  -2.60285  -2.59319  -2.59150
 Alpha  occ. eigenvalues --   -2.59148  -2.59103  -2.59015  -2.59006  -2.58800
 Alpha  occ. eigenvalues --   -2.58776  -2.58156  -2.58155  -2.57918  -2.57916
 Alpha  occ. eigenvalues --   -2.56529  -2.56320  -2.56280  -2.55694  -2.55693
 Alpha  occ. eigenvalues --   -2.25207  -2.24237  -2.23549  -1.08134  -0.92182
 Alpha  occ. eigenvalues --   -0.79418  -0.76199  -0.73063  -0.72095  -0.70299
 Alpha  occ. eigenvalues --   -0.64395  -0.49188  -0.46981  -0.45690  -0.44121
 Alpha  occ. eigenvalues --   -0.43782  -0.41250  -0.41027  -0.38442  -0.37092
 Alpha  occ. eigenvalues --   -0.32096  -0.30642  -0.28232  -0.26859  -0.26174
 Alpha  occ. eigenvalues --   -0.25994  -0.25565  -0.25175  -0.24850  -0.24472
 Alpha  occ. eigenvalues --   -0.23885  -0.23326  -0.22549  -0.21100  -0.20688
 Alpha virt. eigenvalues --   -0.11991  -0.07679  -0.02748   0.05467   0.05680
 Alpha virt. eigenvalues --    0.06282   0.15054   0.19687   0.20923   0.24400
 Alpha virt. eigenvalues --    0.25863   0.26628   0.35176   0.35581   0.36207
 Alpha virt. eigenvalues --    0.38753   0.42531   0.43455   0.45761   0.49570
 Alpha virt. eigenvalues --    0.51749   0.53037   0.53470   0.53756   0.54939
 Alpha virt. eigenvalues --    0.55339   0.56038   0.56195   0.56556   0.56655
 Alpha virt. eigenvalues --    0.58791   0.59385   0.59891   0.60100   0.61326
 Alpha virt. eigenvalues --    0.63227   0.64462   0.64641   0.65622   0.67539
 Alpha virt. eigenvalues --    0.69058   0.71503   0.72753   0.73321   0.75681
 Alpha virt. eigenvalues --    0.80371   0.81340   0.83051   0.84100   0.90150
 Alpha virt. eigenvalues --    0.90454   0.91666   0.93831   0.94742   0.95561
 Alpha virt. eigenvalues --    0.99664   1.00853   1.03313   1.04240   1.06121
 Alpha virt. eigenvalues --    1.07702   1.09807   1.12118   1.14045   1.14739
 Alpha virt. eigenvalues --    1.18867   1.20246   1.22340   1.23777   1.29568
 Alpha virt. eigenvalues --    1.35411   1.42242   1.45963   1.54612   1.98172
 Alpha virt. eigenvalues --    1.99410   2.07314   2.30711   2.34742   2.66562
 Alpha virt. eigenvalues --    2.66804   2.68401   2.70736   2.76347   2.99082
 Alpha virt. eigenvalues --    3.02460   3.22720   3.42397   3.44243   3.44904
 Alpha virt. eigenvalues --    3.46141   3.46519   3.46855   3.47907   3.49484
 Alpha virt. eigenvalues --    3.51230   3.51682   3.51997   3.52724   3.57312
 Alpha virt. eigenvalues --    3.58209   3.64373   3.68822   3.71952   3.73575
 Alpha virt. eigenvalues --    3.76401   3.76753   3.80634   3.86854   8.91860
          Condensed to atoms (all electrons):
              1          2          3          4          5          6
     1  Pt  17.841962   0.208721  -0.508428   0.066730  -0.014341  -0.010426
     2  Br   0.208721  35.058165  -0.073666  -0.024328   0.000652   0.000541
     3  Br  -0.508428  -0.073666  36.291914  -0.106031   0.002861   0.001191
     4  N    0.066730  -0.024328  -0.106031   6.752427   0.180965   0.167486
     5  O   -0.014341   0.000652   0.002861   0.180965   8.225095  -0.092793
     6  O   -0.010426   0.000541   0.001191   0.167486  -0.092793   8.250131
     7  Cl   0.246099  -0.019809  -0.018521  -0.003222   0.000043   0.000044
     8  Br   0.213865  -0.004679  -0.067573  -0.022578   0.000950  -0.028879
     9  Br   0.273108  -0.031502  -0.018414  -0.014751  -0.022242   0.001140
              7          8          9
     1  Pt   0.246099   0.213865   0.273108
     2  Br  -0.019809  -0.004679  -0.031502
     3  Br  -0.018521  -0.067573  -0.018414
     4  N   -0.003222  -0.022578  -0.014751
     5  O    0.000043   0.000950  -0.022242
     6  O    0.000044  -0.028879   0.001140
     7  Cl  17.033386  -0.026042  -0.022135
     8  Br  -0.026042  35.057224  -0.034084
     9  Br  -0.022135  -0.034084  35.089794
 Mulliken atomic charges:
              1
     1  Pt  -0.317290
     2  Br  -0.114095
     3  Br  -0.503333
     4  N    0.003303
     5  O   -0.281189
     6  O   -0.288436
     7  Cl  -0.189844
     8  Br  -0.088203
     9  Br  -0.220913
 Sum of Mulliken atomic charges =  -2.00000
 Mulliken charges with hydrogens summed into heavy atoms:
              1
     1  Pt  -0.317290
     2  Br  -0.114095
     3  Br  -0.503333
     4  N    0.003303
     5  O   -0.281189
     6  O   -0.288436
     7  Cl  -0.189844
     8  Br  -0.088203
     9  Br  -0.220913
 Sum of Mulliken charges with hydrogens summed into heavy atoms =  -2.00000
 Electronic spatial extent (au):  <R**2>=           3891.2654
 Charge=             -2.0000 electrons
 Dipole moment (field-independent basis, Debye):
    X=             -0.7036    Y=             -2.8886    Z=             -1.2789  Tot=              3.2364
 Quadrupole moment (field-independent basis, Debye-Ang):
   XX=           -154.1612   YY=           -154.9193   ZZ=           -156.1855
   XY=              1.1030   XZ=             -3.1127   YZ=             -3.7974
 Traceless Quadrupole moment (field-independent basis, Debye-Ang):
   XX=              0.9275   YY=              0.1693   ZZ=             -1.0968
   XY=              1.1030   XZ=             -3.1127   YZ=             -3.7974
 Octapole moment (field-independent basis, Debye-Ang**2):
  XXX=             -4.6568  YYY=            -25.0791  ZZZ=            -18.0653  XYY=              2.0526
  XXY=             -1.3899  XXZ=             -7.3228  XZZ=            -10.1619  YZZ=            -13.5236
  YYZ=             -3.8435  XYZ=              1.9390
 Hexadecapole moment (field-independent basis, Debye-Ang**3):
 XXXX=          -1637.7057 YYYY=          -1432.6180 ZZZZ=          -1191.2324 XXXY=              0.7591
 XXXZ=            -21.6399 YYYX=              4.4834 YYYZ=            -24.6519 ZZZX=            -40.7265
 ZZZY=            -56.4766 XXYY=           -506.2762 XXZZ=           -475.0375 YYZZ=           -435.0406
 XXYZ=             -7.6436 YYXZ=             -2.3104 ZZXY=              4.0672
 N-N= 2.812940666191D+03 E-N=-3.212294376586D+04  KE= 1.098518400466D+04
   1 Symmetry operations used in ECPInt.
 ECPInt:  NShTT=    3403 NPrTT=   18378 LenC2=    3099 LenP2D=   11396.
 LDataN:  DoStor=T MaxTD1= 7 Len=  274
 D1PCM: PCM CHGder 1st derivatives, ID1Alg=3 FixD1E=F DoIter=F DoCFld=F I1PDM=0.
 Calling FoFJK, ICntrl=      2127 FMM=F ISym2X=0 I1Cent= 0 IOpClX= 0 NMat=1 NMatS=1 NMatT=0.
 Defaulting to unpruned grid for atomic number  78.
 Defaulting to unpruned grid for atomic number  78.
 Defaulting to unpruned grid for atomic number  78.
 Defaulting to unpruned grid for atomic number  78.
 Defaulting to unpruned grid for atomic number  78.
 Defaulting to unpruned grid for atomic number  78.
 Defaulting to unpruned grid for atomic number  78.
 Defaulting to unpruned grid for atomic number  78.
 Defaulting to unpruned grid for atomic number  78.
 Defaulting to unpruned grid for atomic number  78.
 Defaulting to unpruned grid for atomic number  78.
 Defaulting to unpruned grid for atomic number  78.
 Defaulting to unpruned grid for atomic number  78.
 Defaulting to unpruned grid for atomic number  78.
 Defaulting to unpruned grid for atomic number  78.
 Defaulting to unpruned grid for atomic number  78.
 Defaulting to unpruned grid for atomic number  78.
 Defaulting to unpruned grid for atomic number  78.
 Defaulting to unpruned grid for atomic number  78.
 Defaulting to unpruned grid for atomic number  78.
 Defaulting to unpruned grid for atomic number  78.
 Defaulting to unpruned grid for atomic number  78.
 Defaulting to unpruned grid for atomic number  78.
 Defaulting to unpruned grid for atomic number  78.
 ***** Axes restored to original set *****
 -------------------------------------------------------------------
 Center     Atomic                   Forces (Hartrees/Bohr)
 Number     Number              X              Y              Z
 -------------------------------------------------------------------
      1       78          -0.279945387    0.005240657   -0.016398089
      2       35          -0.003824048   -0.000021503   -0.041745228
      3       35           0.366912776    0.001761162    0.001068772
      4        7          -0.132682259   -0.105688265    0.109252672
      5        8           0.098726809    0.017835200   -0.006579709
      6        8           0.018290771    0.014861251   -0.096917101
      7       17          -0.004964165    0.046753191    0.002073178
      8       35          -0.005758081    0.011542143    0.046331899
      9       35          -0.056756416    0.007716163    0.002913606
 -------------------------------------------------------------------
 Cartesian Forces:  Max     0.366912776 RMS     0.102494242

 GradGradGradGradGradGradGradGradGradGradGradGradGradGradGradGradGradGrad
 Berny optimization.
 Internal  Forces:  Max     0.366915968 RMS     0.075326208
 Search for a local minimum.
 Step number   1 out of a maximum of   41
 All quantities printed in internal units (Hartrees-Bohrs-Radians)
 Mixed Optimization -- RFO/linear search
 Second derivative matrix not updated -- first step.
     Eigenvalues ---    0.00230   0.04734   0.12615   0.12615   0.16743
     Eigenvalues ---    0.19509   0.19509   0.19509   0.20378   0.22001
     Eigenvalues ---    0.25000   0.25000   0.25000   0.25000   0.25000
     Eigenvalues ---    0.25000   0.25000   0.25000   0.52948   0.52948
     Eigenvalues ---    0.909561000.000001000.000001000.000001000.00000
     Eigenvalues --- 1000.000001000.000001000.000001000.000001000.00000
     Eigenvalues --- 1000.00000
 RFO step:  Lambda=-2.09124814D-01 EMin= 2.30000000D-03
 Linear search not attempted -- first point.
 Maximum step size (   0.300) exceeded in Quadratic search.
    -- Step size scaled by   0.525
 Iteration  1 RMS(Cart)=  0.08275019 RMS(Int)=  0.00238353
 Iteration  2 RMS(Cart)=  0.00227850 RMS(Int)=  0.00113070
 Iteration  3 RMS(Cart)=  0.00000923 RMS(Int)=  0.00113069
 Iteration  4 RMS(Cart)=  0.00000004 RMS(Int)=  0.00113069
 Variable       Old X    -DE/DX   Delta X   Delta X   Delta X     New X
                                 (Linear)    (Quad)   (Total)
    R1        4.59203   0.04175   0.00000   0.05425   0.05425   4.64629
    R2        3.76056   0.36692   0.00000   0.17227   0.17227   3.93283
    R3        3.76056   0.07298   0.00000   0.09283   0.09283   3.85339
    R4        4.30858   0.04675   0.00000   0.05722   0.05722   4.36580
    R5        4.59203   0.04632   0.00000   0.06019   0.06019   4.65223
    R6        4.59203   0.05675   0.00000   0.07375   0.07375   4.66578
    R7        2.57003  -0.09235   0.00000  -0.06567  -0.06567   2.50436
    R8        2.57003  -0.09093   0.00000  -0.06466  -0.06466   2.50536
    A1        1.57080   0.00613   0.00000   0.00986   0.00983   1.58063
    A2        1.57080  -0.00921   0.00000  -0.01054  -0.01057   1.56023
    A3        1.57080  -0.00887   0.00000  -0.01015  -0.01018   1.56062
    A4        1.57080  -0.00181   0.00000  -0.00310  -0.00312   1.56767
    A5        1.57080   0.00676   0.00000   0.00773   0.00776   1.57856
    A6        1.57080   0.00016   0.00000   0.00019   0.00023   1.57102
    A7        1.57080   0.00486   0.00000   0.00736   0.00709   1.57789
    A8        1.57080   0.03565   0.00000   0.04079   0.04075   1.61154
    A9        1.57080   0.01426   0.00000   0.01632   0.01634   1.58714
   A10        1.57080  -0.01757   0.00000  -0.02010  -0.02013   1.55066
   A11        1.57080  -0.02119   0.00000  -0.02424  -0.02420   1.54660
   A12        1.57080  -0.00918   0.00000  -0.01412  -0.01452   1.55628
   A13        1.91063   0.03485   0.00000   0.05110   0.04845   1.95908
   A14        1.91063   0.04159   0.00000   0.05881   0.05617   1.96680
   A15        1.91063  -0.00093   0.00000   0.02141   0.01696   1.92759
    D1       -1.25054   0.02752   0.00000   0.05420   0.05504  -1.19551
    D2        2.93825  -0.01814   0.00000  -0.03932  -0.04014   2.89811
    D3       -2.82134   0.02140   0.00000   0.04434   0.04529  -2.77605
    D4        1.36745  -0.02427   0.00000  -0.04918  -0.04989   1.31756
    D5        1.89105   0.01653   0.00000   0.03698   0.03787   1.92892
    D6       -0.20334  -0.02913   0.00000  -0.05654  -0.05730  -0.26065
    D7        0.32025   0.02571   0.00000   0.05110   0.05174   0.37199
    D8       -1.77414  -0.01995   0.00000  -0.04242  -0.04344  -1.81758
         Item               Value     Threshold  Converged?
 Maximum Force            0.366916     0.000450     NO 
 RMS     Force            0.075326     0.000300     NO 
 Maximum Displacement     0.198553     0.001800     NO 
 RMS     Displacement     0.081873     0.001200     NO 
 Predicted change in Energy=-9.044834D-02
 GradGradGradGradGradGradGradGradGradGradGradGradGradGradGradGradGradGrad

                          Input orientation:                          
 ---------------------------------------------------------------------
 Center     Atomic      Atomic             Coordinates (Angstroms)
 Number     Number       Type             X           Y           Z
 ---------------------------------------------------------------------
      1         78           0       -0.326960    0.347695    0.017526
      2         35           0       -0.346083    0.331394   -2.441055
      3         35           0        1.754197    0.344903    0.021819
      4          7           0       -0.345507   -1.691331    0.009638
      5          8           0       -1.494671   -2.180928   -0.433079
      6          8           0       -0.046167   -2.210057    1.192437
      7         17           0       -0.324307    2.657647   -0.021329
      8         35           0       -0.349366    0.438666    2.477597
      9         35           0       -2.795162    0.410458    0.028596
 ---------------------------------------------------------------------
                    Distance matrix (angstroms):
                    1          2          3          4          5
     1  Pt   0.000000
     2  Br   2.458710   0.000000
     3  Br   2.081164   3.236837   0.000000
     4  N    2.039126   3.177627   2.924920   0.000000
     5  O    2.821441   3.415112   4.140278   1.325248   0.000000
     6  O    2.828666   4.444231   3.337585   1.325781   2.177456
     7  Cl   2.310280   3.356635   3.109796   4.349140   4.995107
     8  Br   2.461854   4.919823   3.234905   3.260019   4.079955
     9  Br   2.469025   3.478997   4.549837   3.227799   2.935933
                    6          7          8          9
     6  O    0.000000
     7  Cl   5.024453   0.000000
     8  Br   2.959611   3.342025   0.000000
     9  Br   3.972228   3.340281   3.461260   0.000000
 Stoichiometry    Br4ClNO2Pt(2-)
 Framework group  C1[X(Br4ClNO2Pt)]
 Deg. of freedom    21
 Full point group                 C1      NOp   1
 Largest Abelian subgroup         C1      NOp   1
 Largest concise Abelian subgroup C1      NOp   1
                         Standard orientation:                         
 ---------------------------------------------------------------------
 Center     Atomic      Atomic             Coordinates (Angstroms)
 Number     Number       Type             X           Y           Z
 ---------------------------------------------------------------------
      1         78           0       -0.014616   -0.090809   -0.035010
      2         35           0       -2.462065   -0.304078    0.063803
      3         35           0        0.192436   -2.155164    0.128721
      4          7           0        0.029901    0.090661    1.995537
      5          8           0       -0.509475    1.228176    2.409560
      6          8           0        1.249595   -0.052318    2.495137
      7         17           0       -0.114385   -0.282715   -2.335143
      8         35           0        2.428286    0.157809   -0.211490
      9         35           0       -0.245675    2.354226   -0.288981
 ---------------------------------------------------------------------
 Rotational constants (GHZ):      0.3909689      0.3529921      0.2772001
 Basis read from rwf:  (5D, 7F)
 Pseudo-potential data read from rwf file.
 There are   210 symmetry adapted basis functions of A   symmetry.
 Integral buffers will be    131072 words long.
 Raffenetti 2 integral format.
 Two-electron integral symmetry is turned on.
   210 basis functions,   475 primitive gaussians,   228 cartesian basis functions
   100 alpha electrons      100 beta electrons
       nuclear repulsion energy      2754.5950996736 Hartrees.
 NAtoms=    9 NActive=    9 NUniq=    9 SFac= 7.50D-01 NAtFMM=   80 NAOKFM=F Big=F
 ------------------------------------------------------------------------------
 Polarizable Continuum Model (PCM)
 =================================
 Model                : PCM.
 Atomic radii         : UFF (Universal Force Field).
 Polarization charges : Total charges.
 Charge compensation  : None.
 Solution method      : Matrix inversion.
 Cavity type          : Scaled VdW (van der Waals Surface) (Alpha=1.100).
 Cavity algorithm     : GePol (No added spheres)
                        Default sphere list used, NSphG=    9.
                        Lebedev-Laikov grids with approx.  5.0 points / Ang**2.
                        Smoothing algorithm: Karplus/York (Gamma=1.0000).
                        Polarization charges: spherical gaussians, with
                                              point-specific exponents (IZeta= 3).
                        Self-potential: point-specific (ISelfS= 7).
                        Self-field    : sphere-specific E.n sum rule (ISelfD= 2).
 1st derivatives      : Analytical E(r).r(x)/FMM algorithm (CHGder, D1EAlg=3).
                        Cavity 1st derivative terms included.
 Solvent              : Water, Eps=  78.355300 Eps(inf)=   1.777849
 ------------------------------------------------------------------------------
 Spheres list:
 ISph  on   Nord    Re0     Alpha      Xe            Ye            Ze
    1  Pt      1    1.377   1.100     -0.014616     -0.090809     -0.035010
    2  Br      2    2.095   1.100     -2.462065     -0.304078      0.063803
    3  Br      3    2.095   1.100      0.192436     -2.155164      0.128721
    4   N      4    1.830   1.100      0.029901      0.090661      1.995537
    5   O      5    1.750   1.100     -0.509475      1.228176      2.409560
    6   O      6    1.750   1.100      1.249595     -0.052318      2.495137
    7  Cl      7    1.974   1.100     -0.114385     -0.282715     -2.335143
    8  Br      8    2.095   1.100      2.428286      0.157809     -0.211490
    9  Br      9    2.095   1.100     -0.245675      2.354226     -0.288981
 ------------------------------------------------------------------------------
 One-electron integrals computed using PRISM.
   1 Symmetry operations used in ECPInt.
 ECPInt:  NShTT=    3403 NPrTT=   18378 LenC2=    3085 LenP2D=   11293.
 LDataN:  DoStor=T MaxTD1= 6 Len=  172
 NBasis=   210 RedAO= T  NBF=   210
 NBsUse=   210 1.00D-06 NBFU=   210
 Defaulting to unpruned grid for atomic number  78.
 Initial guess read from the read-write file.
 B after Tr=     0.000000    0.000000    0.000000
         Rot=    1.000000    0.000000    0.000000    0.000000 Ang=   0.00 deg.
 Initial guess orbital symmetries:
       Occupied  (A) (A) (A) (A) (A) (A) (A) (A) (A) (A) (A) (A)
                 (A) (A) (A) (A) (A) (A) (A) (A) (A) (A) (A) (A)
                 (A) (A) (A) (A) (A) (A) (A) (A) (A) (A) (A) (A)
                 (A) (A) (A) (A) (A) (A) (A) (A) (A) (A) (A) (A)
                 (A) (A) (A) (A) (A) (A) (A) (A) (A) (A) (A) (A)
                 (A) (A) (A) (A) (A) (A) (A) (A) (A) (A) (A) (A)
                 (A) (A) (A) (A) (A) (A) (A) (A) (A) (A) (A) (A)
                 (A) (A) (A) (A) (A) (A) (A) (A) (A) (A) (A) (A)
                 (A) (A) (A) (A)
       Virtual   (A) (A) (A) (A) (A) (A) (A) (A) (A) (A) (A) (A)
                 (A) (A) (A) (A) (A) (A) (A) (A) (A) (A) (A) (A)
                 (A) (A) (A) (A) (A) (A) (A) (A) (A) (A) (A) (A)
                 (A) (A) (A) (A) (A) (A) (A) (A) (A) (A) (A) (A)
                 (A) (A) (A) (A) (A) (A) (A) (A) (A) (A) (A) (A)
                 (A) (A) (A) (A) (A) (A) (A) (A) (A) (A) (A) (A)
                 (A) (A) (A) (A) (A) (A) (A) (A) (A) (A) (A) (A)
                 (A) (A) (A) (A) (A) (A) (A) (A) (A) (A) (A) (A)
                 (A) (A) (A) (A) (A) (A) (A) (A) (A) (A) (A) (A)
                 (A) (A)
 Harris functional with IExCor=  402 diagonalized for initial guess.
 ExpMin= 2.90D-02 ExpMax= 1.13D+05 ExpMxC= 1.70D+04 IAcc=3 IRadAn=         0 AccDes= 0.00D+00
 HarFok:  IExCor=  402 AccDes= 0.00D+00 IRadAn=         0 IDoV= 1
 ScaDFX=  1.000000  1.000000  1.000000  1.000000
 Defaulting to unpruned grid for atomic number  78.
 Defaulting to unpruned grid for atomic number  78.
 Defaulting to unpruned grid for atomic number  78.
 Defaulting to unpruned grid for atomic number  78.
 Defaulting to unpruned grid for atomic number  78.
 Defaulting to unpruned grid for atomic number  78.
 Defaulting to unpruned grid for atomic number  78.
 Defaulting to unpruned grid for atomic number  78.
 Defaulting to unpruned grid for atomic number  78.
 Defaulting to unpruned grid for atomic number  78.
 Defaulting to unpruned grid for atomic number  78.
 Defaulting to unpruned grid for atomic number  78.
 Defaulting to unpruned grid for atomic number  78.
 Defaulting to unpruned grid for atomic number  78.
 Defaulting to unpruned grid for atomic number  78.
 Defaulting to unpruned grid for atomic number  78.
 Defaulting to unpruned grid for atomic number  78.
 Defaulting to unpruned grid for atomic number  78.
 Defaulting to unpruned grid for atomic number  78.
 Defaulting to unpruned grid for atomic number  78.
 Defaulting to unpruned grid for atomic number  78.
 Defaulting to unpruned grid for atomic number  78.
 Defaulting to unpruned grid for atomic number  78.
 Defaulting to unpruned grid for atomic number  78.
 FoFCou: FMM=F IPFlag=           0 FMFlag=      100000 FMFlg1=           0
         NFxFlg=           0 DoJE=T BraDBF=F KetDBF=T FulRan=T
         Omega=  0.000000  0.000000  1.000000  0.000000  0.000000 ICntrl=     500 IOpCl=  0
         NMat0=    1 NMatS0=    1 NMatT0=    0 NMatD0=    1 NMtDS0=    0 NMtDT0=    0
         I1Cent=           4 NGrid=           0.
 Petite list used in FoFCou.
 Requested convergence on RMS density matrix=1.00D-08 within 128 cycles.
 Requested convergence on MAX density matrix=1.00D-06.
 Requested convergence on             energy=1.00D-06.
 No special actions if energy rises.
 Keep R1 ints in memory in canonical form, NReq=347174367.
 Defaulting to unpruned grid for atomic number  78.
 Defaulting to unpruned grid for atomic number  78.
 Defaulting to unpruned grid for atomic number  78.
 Defaulting to unpruned grid for atomic number  78.
 Defaulting to unpruned grid for atomic number  78.
 Defaulting to unpruned grid for atomic number  78.
 Defaulting to unpruned grid for atomic number  78.
 Defaulting to unpruned grid for atomic number  78.
 Defaulting to unpruned grid for atomic number  78.
 Defaulting to unpruned grid for atomic number  78.
 Defaulting to unpruned grid for atomic number  78.
 Defaulting to unpruned grid for atomic number  78.
 Defaulting to unpruned grid for atomic number  78.
 Defaulting to unpruned grid for atomic number  78.
 Defaulting to unpruned grid for atomic number  78.
 Defaulting to unpruned grid for atomic number  78.
 Defaulting to unpruned grid for atomic number  78.
 Defaulting to unpruned grid for atomic number  78.
 Defaulting to unpruned grid for atomic number  78.
 Defaulting to unpruned grid for atomic number  78.
 Defaulting to unpruned grid for atomic number  78.
 Defaulting to unpruned grid for atomic number  78.
 Defaulting to unpruned grid for atomic number  78.
 Defaulting to unpruned grid for atomic number  78.
 Error on total polarization charges =  0.01715
 SCF Done:  E(RB3LYP) =  -11080.0036581     A.U. after   14 cycles
             Convg  =    0.4141D-08             -V/T =  2.0087
   1 Symmetry operations used in ECPInt.
 ECPInt:  NShTT=    3403 NPrTT=   18378 LenC2=    3085 LenP2D=   11293.
 LDataN:  DoStor=T MaxTD1= 7 Len=  274
 D1PCM: PCM CHGder 1st derivatives, ID1Alg=3 FixD1E=F DoIter=F DoCFld=F I1PDM=0.
 Calling FoFJK, ICntrl=      2127 FMM=F ISym2X=0 I1Cent= 0 IOpClX= 0 NMat=1 NMatS=1 NMatT=0.
 Defaulting to unpruned grid for atomic number  78.
 Defaulting to unpruned grid for atomic number  78.
 Defaulting to unpruned grid for atomic number  78.
 Defaulting to unpruned grid for atomic number  78.
 Defaulting to unpruned grid for atomic number  78.
 Defaulting to unpruned grid for atomic number  78.
 Defaulting to unpruned grid for atomic number  78.
 Defaulting to unpruned grid for atomic number  78.
 Defaulting to unpruned grid for atomic number  78.
 Defaulting to unpruned grid for atomic number  78.
 Defaulting to unpruned grid for atomic number  78.
 Defaulting to unpruned grid for atomic number  78.
 Defaulting to unpruned grid for atomic number  78.
 Defaulting to unpruned grid for atomic number  78.
 Defaulting to unpruned grid for atomic number  78.
 Defaulting to unpruned grid for atomic number  78.
 Defaulting to unpruned grid for atomic number  78.
 Defaulting to unpruned grid for atomic number  78.
 Defaulting to unpruned grid for atomic number  78.
 Defaulting to unpruned grid for atomic number  78.
 Defaulting to unpruned grid for atomic number  78.
 Defaulting to unpruned grid for atomic number  78.
 Defaulting to unpruned grid for atomic number  78.
 Defaulting to unpruned grid for atomic number  78.
 ***** Axes restored to original set *****
 -------------------------------------------------------------------
 Center     Atomic                   Forces (Hartrees/Bohr)
 Number     Number              X              Y              Z
 -------------------------------------------------------------------
      1       78          -0.178668260    0.002605306   -0.015913085
      2       35          -0.001815270   -0.001178041   -0.030175582
      3       35           0.239931804   -0.000792668    0.000970229
      4        7          -0.120100483   -0.094028717    0.101648165
      5        8           0.085739670    0.025246571   -0.009575766
      6        8           0.019667508    0.026480556   -0.081816149
      7       17          -0.002802050    0.033162377    0.001618176
      8       35          -0.002768171    0.004481001    0.031564273
      9       35          -0.039184748    0.004023616    0.001679740
 -------------------------------------------------------------------
 Cartesian Forces:  Max     0.239931804 RMS     0.072982831

 GradGradGradGradGradGradGradGradGradGradGradGradGradGradGradGradGradGrad
 Berny optimization.
 Using GEDIIS/GDIIS optimizer.
 Internal  Forces:  Max     0.239936441 RMS     0.051170076
 Search for a local minimum.
 Step number   2 out of a maximum of   41
 All quantities printed in internal units (Hartrees-Bohrs-Radians)
 Mixed Optimization -- RFO/linear search
 Update second derivatives using D2CorX and points    1    2
 DE= -9.17D-02 DEPred=-9.04D-02 R= 1.01D+00
 SS=  1.41D+00  RLast= 3.00D-01 DXNew= 5.0454D-01 8.9942D-01
 Trust test= 1.01D+00 RLast= 3.00D-01 DXMaxT set to 5.05D-01
 Use linear search instead of GDIIS.
 Linear search step of   0.600 exceeds DXMaxT=   0.505 but not scaled.
 Quartic linear search produced a step of  2.00000.
 Iteration  1 RMS(Cart)=  0.14992914 RMS(Int)=  0.02870219
 Iteration  2 RMS(Cart)=  0.02665843 RMS(Int)=  0.00616255
 Iteration  3 RMS(Cart)=  0.00013774 RMS(Int)=  0.00616177
 Iteration  4 RMS(Cart)=  0.00000191 RMS(Int)=  0.00616177
 Iteration  5 RMS(Cart)=  0.00000003 RMS(Int)=  0.00616177
 Variable       Old X    -DE/DX   Delta X   Delta X   Delta X     New X
                                 (Linear)    (Quad)   (Total)
    R1        4.64629   0.03020   0.10851   0.00000   0.10851   4.75480
    R2        3.93283   0.23994   0.34455   0.00000   0.34455   4.27738
    R3        3.85339   0.04239   0.18567   0.00000   0.18567   4.03906
    R4        4.36580   0.03313   0.11444   0.00000   0.11444   4.48024
    R5        4.65223   0.03173   0.12039   0.00000   0.12039   4.77262
    R6        4.66578   0.03928   0.14749   0.00000   0.14749   4.81327
    R7        2.50436  -0.08047  -0.13134   0.00000  -0.13134   2.37301
    R8        2.50536  -0.07891  -0.12933   0.00000  -0.12933   2.37603
    A1        1.58063   0.00267   0.01966   0.00000   0.01947   1.60010
    A2        1.56023  -0.00270  -0.02114   0.00000  -0.02131   1.53892
    A3        1.56062   0.00199  -0.02036   0.00000  -0.02052   1.54010
    A4        1.56767  -0.00045  -0.00625   0.00000  -0.00633   1.56134
    A5        1.57856   0.00125   0.01552   0.00000   0.01564   1.59420
    A6        1.57102   0.00310   0.00046   0.00000   0.00077   1.57180
    A7        1.57789   0.00194   0.01418   0.00000   0.01254   1.59043
    A8        1.61154   0.00796   0.08149   0.00000   0.08118   1.69272
    A9        1.58714   0.00486   0.03269   0.00000   0.03274   1.61988
   A10        1.55066  -0.00736  -0.04026   0.00000  -0.04043   1.51023
   A11        1.54660  -0.00917  -0.04839   0.00000  -0.04807   1.49853
   A12        1.55628  -0.00447  -0.02904   0.00000  -0.03130   1.52498
   A13        1.95908   0.01815   0.09689   0.00000   0.07981   2.03889
   A14        1.96680   0.01711   0.11234   0.00000   0.09541   2.06221
   A15        1.92759   0.01011   0.03392   0.00000   0.01149   1.93909
    D1       -1.19551   0.02311   0.11007   0.00000   0.11336  -1.08214
    D2        2.89811  -0.01879  -0.08028   0.00000  -0.08347   2.81464
    D3       -2.77605   0.02047   0.09057   0.00000   0.09454  -2.68152
    D4        1.31756  -0.02143  -0.09978   0.00000  -0.10230   1.21526
    D5        1.92892   0.01842   0.07575   0.00000   0.07930   2.00822
    D6       -0.26065  -0.02349  -0.11461   0.00000  -0.11754  -0.37818
    D7        0.37199   0.02257   0.10348   0.00000   0.10563   0.47762
    D8       -1.81758  -0.01934  -0.08688   0.00000  -0.09121  -1.90879
         Item               Value     Threshold  Converged?
 Maximum Force            0.239936     0.000450     NO 
 RMS     Force            0.051170     0.000300     NO 
 Maximum Displacement     0.368210     0.001800     NO 
 RMS     Displacement     0.155432     0.001200     NO 
 Predicted change in Energy=-8.074399D-02
 GradGradGradGradGradGradGradGradGradGradGradGradGradGradGradGradGradGrad

                          Input orientation:                          
 ---------------------------------------------------------------------
 Center     Atomic      Atomic             Coordinates (Angstroms)
 Number     Number       Type             X           Y           Z
 ---------------------------------------------------------------------
      1         78           0       -0.340889    0.358551    0.054612
      2         35           0       -0.399062    0.313767   -2.460447
      3         35           0        1.922557    0.355565    0.068654
      4          7           0       -0.393553   -1.777981    0.025731
      5          8           0       -1.408229   -2.312858   -0.485378
      6          8           0       -0.028883   -2.394480    1.059102
      7         17           0       -0.339419    2.726601   -0.060393
      8         35           0       -0.405669    0.633515    2.564325
      9         35           0       -2.880881    0.545767    0.085943
 ---------------------------------------------------------------------
                    Distance matrix (angstroms):
                    1          2          3          4          5
     1  Pt   0.000000
     2  Br   2.516130   0.000000
     3  Br   2.263491   3.433367   0.000000
     4  N    2.137377   3.249080   3.149321   0.000000
     5  O    2.926983   3.437801   4.303669   1.255744   0.000000
     6  O    2.947122   4.456328   3.514520   1.257343   2.072360
     7  Cl   2.370841   3.403760   3.279482   4.505731   5.169053
     8  Br   2.525561   5.034940   3.424363   3.501417   4.357399
     9  Br   2.547075   3.563334   4.807233   3.404443   3.266013
                    6          7          8          9
     6  O    0.000000
     7  Cl   5.251207   0.000000
     8  Br   3.402414   3.357759   0.000000
     9  Br   4.210224   3.352085   3.503820   0.000000
 Stoichiometry    Br4ClNO2Pt(2-)
 Framework group  C1[X(Br4ClNO2Pt)]
 Deg. of freedom    21
 Full point group                 C1      NOp   1
 Largest Abelian subgroup         C1      NOp   1
 Largest concise Abelian subgroup C1      NOp   1
                         Standard orientation:                         
 ---------------------------------------------------------------------
 Center     Atomic      Atomic             Coordinates (Angstroms)
 Number     Number       Type             X           Y           Z
 ---------------------------------------------------------------------
      1         78           0       -0.000653   -0.079533   -0.015240
      2         35           0       -2.501038   -0.332843   -0.136983
      3         35           0        0.294072   -2.323716   -0.028372
      4          7           0       -0.174455   -0.064370    2.115005
      5          8           0       -0.841214    0.870969    2.622418
      6          8           0        0.853988   -0.308377    2.795943
      7         17           0        0.039350   -0.058020   -2.385645
      8         35           0        2.494112    0.298728   -0.122590
      9         35           0       -0.272831    2.447538   -0.180833
 ---------------------------------------------------------------------
 Rotational constants (GHZ):      0.3530057      0.3318929      0.2591046
 Basis read from rwf:  (5D, 7F)
 Pseudo-potential data read from rwf file.
 There are   210 symmetry adapted basis functions of A   symmetry.
 Integral buffers will be    131072 words long.
 Raffenetti 2 integral format.
 Two-electron integral symmetry is turned on.
   210 basis functions,   475 primitive gaussians,   228 cartesian basis functions
   100 alpha electrons      100 beta electrons
       nuclear repulsion energy      2651.2535488331 Hartrees.
 NAtoms=    9 NActive=    9 NUniq=    9 SFac= 7.50D-01 NAtFMM=   80 NAOKFM=F Big=F
 ------------------------------------------------------------------------------
 Polarizable Continuum Model (PCM)
 =================================
 Model                : PCM.
 Atomic radii         : UFF (Universal Force Field).
 Polarization charges : Total charges.
 Charge compensation  : None.
 Solution method      : Matrix inversion.
 Cavity type          : Scaled VdW (van der Waals Surface) (Alpha=1.100).
 Cavity algorithm     : GePol (No added spheres)
                        Default sphere list used, NSphG=    9.
                        Lebedev-Laikov grids with approx.  5.0 points / Ang**2.
                        Smoothing algorithm: Karplus/York (Gamma=1.0000).
                        Polarization charges: spherical gaussians, with
                                              point-specific exponents (IZeta= 3).
                        Self-potential: point-specific (ISelfS= 7).
                        Self-field    : sphere-specific E.n sum rule (ISelfD= 2).
 1st derivatives      : Analytical E(r).r(x)/FMM algorithm (CHGder, D1EAlg=3).
                        Cavity 1st derivative terms included.
 Solvent              : Water, Eps=  78.355300 Eps(inf)=   1.777849
 ------------------------------------------------------------------------------
 Spheres list:
 ISph  on   Nord    Re0     Alpha      Xe            Ye            Ze
    1  Pt      1    1.377   1.100     -0.000653     -0.079533     -0.015240
    2  Br      2    2.095   1.100     -2.501038     -0.332843     -0.136983
    3  Br      3    2.095   1.100      0.294072     -2.323716     -0.028372
    4   N      4    1.830   1.100     -0.174455     -0.064370      2.115005
    5   O      5    1.750   1.100     -0.841214      0.870969      2.622418
    6   O      6    1.750   1.100      0.853988     -0.308377      2.795943
    7  Cl      7    1.974   1.100      0.039350     -0.058020     -2.385645
    8  Br      8    2.095   1.100      2.494112      0.298728     -0.122590
    9  Br      9    2.095   1.100     -0.272831      2.447538     -0.180833
 ------------------------------------------------------------------------------
 One-electron integrals computed using PRISM.
   1 Symmetry operations used in ECPInt.
 ECPInt:  NShTT=    3403 NPrTT=   18378 LenC2=    3054 LenP2D=   11084.
 LDataN:  DoStor=T MaxTD1= 6 Len=  172
 NBasis=   210 RedAO= T  NBF=   210
 NBsUse=   210 1.00D-06 NBFU=   210
 Defaulting to unpruned grid for atomic number  78.
 Initial guess read from the read-write file.
 B after Tr=     0.000000    0.000000    0.000000
         Rot=    1.000000    0.000000    0.000000    0.000000 Ang=   0.00 deg.
 Initial guess orbital symmetries:
       Occupied  (A) (A) (A) (A) (A) (A) (A) (A) (A) (A) (A) (A)
                 (A) (A) (A) (A) (A) (A) (A) (A) (A) (A) (A) (A)
                 (A) (A) (A) (A) (A) (A) (A) (A) (A) (A) (A) (A)
                 (A) (A) (A) (A) (A) (A) (A) (A) (A) (A) (A) (A)
                 (A) (A) (A) (A) (A) (A) (A) (A) (A) (A) (A) (A)
                 (A) (A) (A) (A) (A) (A) (A) (A) (A) (A) (A) (A)
                 (A) (A) (A) (A) (A) (A) (A) (A) (A) (A) (A) (A)
                 (A) (A) (A) (A) (A) (A) (A) (A) (A) (A) (A) (A)
                 (A) (A) (A) (A)
       Virtual   (A) (A) (A) (A) (A) (A) (A) (A) (A) (A) (A) (A)
                 (A) (A) (A) (A) (A) (A) (A) (A) (A) (A) (A) (A)
                 (A) (A) (A) (A) (A) (A) (A) (A) (A) (A) (A) (A)
                 (A) (A) (A) (A) (A) (A) (A) (A) (A) (A) (A) (A)
                 (A) (A) (A) (A) (A) (A) (A) (A) (A) (A) (A) (A)
                 (A) (A) (A) (A) (A) (A) (A) (A) (A) (A) (A) (A)
                 (A) (A) (A) (A) (A) (A) (A) (A) (A) (A) (A) (A)
                 (A) (A) (A) (A) (A) (A) (A) (A) (A) (A) (A) (A)
                 (A) (A) (A) (A) (A) (A) (A) (A) (A) (A) (A) (A)
                 (A) (A)
 Harris functional with IExCor=  402 diagonalized for initial guess.
 ExpMin= 2.90D-02 ExpMax= 1.13D+05 ExpMxC= 1.70D+04 IAcc=3 IRadAn=         0 AccDes= 0.00D+00
 HarFok:  IExCor=  402 AccDes= 0.00D+00 IRadAn=         0 IDoV= 1
 ScaDFX=  1.000000  1.000000  1.000000  1.000000
 Defaulting to unpruned grid for atomic number  78.
 Defaulting to unpruned grid for atomic number  78.
 Defaulting to unpruned grid for atomic number  78.
 Defaulting to unpruned grid for atomic number  78.
 Defaulting to unpruned grid for atomic number  78.
 Defaulting to unpruned grid for atomic number  78.
 Defaulting to unpruned grid for atomic number  78.
 Defaulting to unpruned grid for atomic number  78.
 Defaulting to unpruned grid for atomic number  78.
 Defaulting to unpruned grid for atomic number  78.
 Defaulting to unpruned grid for atomic number  78.
 Defaulting to unpruned grid for atomic number  78.
 Defaulting to unpruned grid for atomic number  78.
 Defaulting to unpruned grid for atomic number  78.
 Defaulting to unpruned grid for atomic number  78.
 Defaulting to unpruned grid for atomic number  78.
 Defaulting to unpruned grid for atomic number  78.
 Defaulting to unpruned grid for atomic number  78.
 Defaulting to unpruned grid for atomic number  78.
 Defaulting to unpruned grid for atomic number  78.
 Defaulting to unpruned grid for atomic number  78.
 Defaulting to unpruned grid for atomic number  78.
 Defaulting to unpruned grid for atomic number  78.
 Defaulting to unpruned grid for atomic number  78.
 FoFCou: FMM=F IPFlag=           0 FMFlag=      100000 FMFlg1=           0
         NFxFlg=           0 DoJE=T BraDBF=F KetDBF=T FulRan=T
         Omega=  0.000000  0.000000  1.000000  0.000000  0.000000 ICntrl=     500 IOpCl=  0
         NMat0=    1 NMatS0=    1 NMatT0=    0 NMatD0=    1 NMtDS0=    0 NMtDT0=    0
         I1Cent=           4 NGrid=           0.
 Petite list used in FoFCou.
 Requested convergence on RMS density matrix=1.00D-08 within 128 cycles.
 Requested convergence on MAX density matrix=1.00D-06.
 Requested convergence on             energy=1.00D-06.
 No special actions if energy rises.
 Keep R1 ints in memory in canonical form, NReq=347397897.
 Defaulting to unpruned grid for atomic number  78.
 Defaulting to unpruned grid for atomic number  78.
 Defaulting to unpruned grid for atomic number  78.
 Defaulting to unpruned grid for atomic number  78.
 Defaulting to unpruned grid for atomic number  78.
 Defaulting to unpruned grid for atomic number  78.
 Defaulting to unpruned grid for atomic number  78.
 Defaulting to unpruned grid for atomic number  78.
 Defaulting to unpruned grid for atomic number  78.
 Defaulting to unpruned grid for atomic number  78.
 Defaulting to unpruned grid for atomic number  78.
 Defaulting to unpruned grid for atomic number  78.
 Defaulting to unpruned grid for atomic number  78.
 Defaulting to unpruned grid for atomic number  78.
 Defaulting to unpruned grid for atomic number  78.
 Defaulting to unpruned grid for atomic number  78.
 Defaulting to unpruned grid for atomic number  78.
 Defaulting to unpruned grid for atomic number  78.
 Defaulting to unpruned grid for atomic number  78.
 Defaulting to unpruned grid for atomic number  78.
 Defaulting to unpruned grid for atomic number  78.
 Defaulting to unpruned grid for atomic number  78.
 Defaulting to unpruned grid for atomic number  78.
 Defaulting to unpruned grid for atomic number  78.
 Error on total polarization charges =  0.01634
 SCF Done:  E(RB3LYP) =  -11080.1007923     A.U. after   15 cycles
             Convg  =    0.9946D-08             -V/T =  2.0087
   1 Symmetry operations used in ECPInt.
 ECPInt:  NShTT=    3403 NPrTT=   18378 LenC2=    3054 LenP2D=   11084.
 LDataN:  DoStor=T MaxTD1= 7 Len=  274
 D1PCM: PCM CHGder 1st derivatives, ID1Alg=3 FixD1E=F DoIter=F DoCFld=F I1PDM=0.
 Calling FoFJK, ICntrl=      2127 FMM=F ISym2X=0 I1Cent= 0 IOpClX= 0 NMat=1 NMatS=1 NMatT=0.
 Defaulting to unpruned grid for atomic number  78.
 Defaulting to unpruned grid for atomic number  78.
 Defaulting to unpruned grid for atomic number  78.
 Defaulting to unpruned grid for atomic number  78.
 Defaulting to unpruned grid for atomic number  78.
 Defaulting to unpruned grid for atomic number  78.
 Defaulting to unpruned grid for atomic number  78.
 Defaulting to unpruned grid for atomic number  78.
 Defaulting to unpruned grid for atomic number  78.
 Defaulting to unpruned grid for atomic number  78.
 Defaulting to unpruned grid for atomic number  78.
 Defaulting to unpruned grid for atomic number  78.
 Defaulting to unpruned grid for atomic number  78.
 Defaulting to unpruned grid for atomic number  78.
 Defaulting to unpruned grid for atomic number  78.
 Defaulting to unpruned grid for atomic number  78.
 Defaulting to unpruned grid for atomic number  78.
 Defaulting to unpruned grid for atomic number  78.
 Defaulting to unpruned grid for atomic number  78.
 Defaulting to unpruned grid for atomic number  78.
 Defaulting to unpruned grid for atomic number  78.
 Defaulting to unpruned grid for atomic number  78.
 Defaulting to unpruned grid for atomic number  78.
 Defaulting to unpruned grid for atomic number  78.
 ***** Axes restored to original set *****
 -------------------------------------------------------------------
 Center     Atomic                   Forces (Hartrees/Bohr)
 Number     Number              X              Y              Z
 -------------------------------------------------------------------
      1       78          -0.070605613    0.000839815   -0.014742716
      2       35           0.000991534   -0.002385942   -0.011966866
      3       35           0.091846043   -0.003149275    0.000262200
      4        7          -0.080453886   -0.060013982    0.069601558
      5        8           0.029968526    0.028480295   -0.033967639
      6        8           0.039481422    0.029008813   -0.022280355
      7       17           0.000877563    0.014077127    0.001292882
      8       35           0.000845467   -0.003882304    0.011740533
      9       35          -0.012951057   -0.002974547    0.000060404
 -------------------------------------------------------------------
 Cartesian Forces:  Max     0.091846043 RMS     0.036008341

 GradGradGradGradGradGradGradGradGradGradGradGradGradGradGradGradGradGrad
 Berny optimization.
 Using GEDIIS/GDIIS optimizer.
 Internal  Forces:  Max     0.091849434 RMS     0.022535413
 Search for a local minimum.
 Step number   3 out of a maximum of   41
 All quantities printed in internal units (Hartrees-Bohrs-Radians)
 Mixed Optimization -- RFO/linear search
 Update second derivatives using D2CorX and points    2    3
 Use linear search instead of GDIIS.
     Eigenvalues ---    0.00230   0.02163   0.12539   0.12580   0.16627
     Eigenvalues ---    0.18617   0.19509   0.19512   0.20290   0.21698
     Eigenvalues ---    0.24709   0.25000   0.25000   0.25000   0.25000
     Eigenvalues ---    0.25000   0.25000   0.29149   0.46056   0.52949
     Eigenvalues ---    0.595621000.000001000.000001000.000001000.00000
     Eigenvalues --- 1000.000001000.000001000.000001000.000001000.00000
     Eigenvalues --- 1000.00000
 RFO step:  Lambda=-7.19465710D-02 EMin= 2.29997562D-03
 Quartic linear search produced a step of  0.78505.
 Maximum step size (   0.505) exceeded in Quadratic search.
    -- Step size scaled by   0.696
 Iteration  1 RMS(Cart)=  0.09959971 RMS(Int)=  0.02560920
 Iteration  2 RMS(Cart)=  0.01961061 RMS(Int)=  0.01132708
 Iteration  3 RMS(Cart)=  0.00027817 RMS(Int)=  0.01132234
 Iteration  4 RMS(Cart)=  0.00000471 RMS(Int)=  0.01132234
 Iteration  5 RMS(Cart)=  0.00000009 RMS(Int)=  0.01132234
 Variable       Old X    -DE/DX   Delta X   Delta X   Delta X     New X
                                 (Linear)    (Quad)   (Total)
    R1        4.75480   0.01198   0.08518   0.01950   0.10468   4.85948
    R2        4.27738   0.09185   0.27049   0.01199   0.28248   4.55986
    R3        4.03906   0.00261   0.14576  -0.02801   0.11775   4.15681
    R4        4.48024   0.01400   0.08984   0.02218   0.11202   4.59226
    R5        4.77262   0.01122   0.09451   0.01561   0.11013   4.88275
    R6        4.81327   0.01270   0.11579   0.01385   0.12964   4.94291
    R7        2.37301  -0.02253  -0.10311   0.00780  -0.09531   2.27770
    R8        2.37603  -0.02107  -0.10153   0.00958  -0.09195   2.28408
    A1        1.60010  -0.00170   0.01528  -0.01086   0.00425   1.60434
    A2        1.53892   0.00288  -0.01673   0.01137  -0.00545   1.53347
    A3        1.54010   0.01310  -0.01611   0.04176   0.02555   1.56565
    A4        1.56134   0.00139  -0.00497   0.00865   0.00360   1.56495
    A5        1.59420  -0.00687   0.01228  -0.02476  -0.01246   1.58174
    A6        1.57180   0.00605   0.00061   0.01762   0.01835   1.59015
    A7        1.59043  -0.00009   0.00984  -0.00492   0.00396   1.59439
    A8        1.69272  -0.02002   0.06373  -0.07208  -0.00850   1.68422
    A9        1.61988  -0.00907   0.02571  -0.03472  -0.00902   1.61087
   A10        1.51023   0.00414  -0.03174   0.01974  -0.01210   1.49813
   A11        1.49853   0.00952  -0.03774   0.04062   0.00302   1.50155
   A12        1.52498   0.00301  -0.02457   0.01662  -0.00916   1.51582
   A13        2.03889  -0.01503   0.06265  -0.01889   0.00813   2.04702
   A14        2.06221  -0.01910   0.07490  -0.03040   0.00891   2.07112
   A15        1.93909   0.04512   0.00902   0.21642   0.18819   2.12728
    D1       -1.08214   0.01516   0.08900   0.14421   0.23566  -0.84648
    D2        2.81464  -0.01814  -0.06553  -0.16557  -0.23347   2.58117
    D3       -2.68152   0.01658   0.07422   0.15405   0.23107  -2.45044
    D4        1.21526  -0.01673  -0.08031  -0.15573  -0.23806   0.97720
    D5        2.00822   0.01804   0.06225   0.16394   0.22873   2.23695
    D6       -0.37818  -0.01526  -0.09227  -0.14584  -0.24040  -0.61859
    D7        0.47762   0.01699   0.08292   0.15456   0.23934   0.71696
    D8       -1.90879  -0.01631  -0.07160  -0.15522  -0.22979  -2.13858
         Item               Value     Threshold  Converged?
 Maximum Force            0.091849     0.000450     NO 
 RMS     Force            0.022535     0.000300     NO 
 Maximum Displacement     0.215109     0.001800     NO 
 RMS     Displacement     0.111139     0.001200     NO 
 Predicted change in Energy=-4.531870D-02
 GradGradGradGradGradGradGradGradGradGradGradGradGradGradGradGradGradGrad

                          Input orientation:                          
 ---------------------------------------------------------------------
 Center     Atomic      Atomic             Coordinates (Angstroms)
 Number     Number       Type             X           Y           Z
 ---------------------------------------------------------------------
      1         78           0       -0.374705    0.376038    0.070422
      2         35           0       -0.442353    0.250566   -2.497149
      3         35           0        2.036387    0.283385    0.092485
      4          7           0       -0.483479   -1.820779    0.098424
      5          8           0       -1.329233   -2.340879   -0.584925
      6          8           0        0.072703   -2.417523    0.990318
      7         17           0       -0.327324    2.802089   -0.061913
      8         35           0       -0.446505    0.705080    2.632217
      9         35           0       -2.979519    0.610470    0.112269
 ---------------------------------------------------------------------
                    Distance matrix (angstroms):
                    1          2          3          4          5
     1  Pt   0.000000
     2  Br   2.571525   0.000000
     3  Br   2.412973   3.584890   0.000000
     4  N    2.199687   3.321018   3.282875   0.000000
     5  O    2.953344   3.340471   4.321232   1.205309   0.000000
     6  O    2.974957   4.421132   3.457899   1.208684   2.110140
     7  Cl   2.430119   3.529005   3.457577   4.628283   5.265689
     8  Br   2.583838   5.149465   3.576705   3.577909   4.517419
     9  Br   2.615677   3.657295   5.026599   3.484449   3.452533
                    6          7          8          9
     6  O    0.000000
     7  Cl   5.339622   0.000000
     8  Br   3.565958   3.416136   0.000000
     9  Br   4.388141   3.444949   3.574248   0.000000
 Stoichiometry    Br4ClNO2Pt(2-)
 Framework group  C1[X(Br4ClNO2Pt)]
 Deg. of freedom    21
 Full point group                 C1      NOp   1
 Largest Abelian subgroup         C1      NOp   1
 Largest concise Abelian subgroup C1      NOp   1
                         Standard orientation:                         
 ---------------------------------------------------------------------
 Center     Atomic      Atomic             Coordinates (Angstroms)
 Number     Number       Type             X           Y           Z
 ---------------------------------------------------------------------
      1         78           0        0.004111   -0.058502   -0.029703
      2         35           0       -2.540100   -0.362272   -0.247535
      3         35           0        0.379591   -2.439560   -0.139319
      4          7           0       -0.251756   -0.174884    2.151950
      5          8           0       -1.113352    0.509087    2.644500
      6          8           0        0.634897   -0.660256    2.814655
      7         17           0        0.176182    0.127549   -2.446572
      8         35           0        2.546271    0.402871   -0.001810
      9         35           0       -0.320786    2.536914   -0.035004
 ---------------------------------------------------------------------
 Rotational constants (GHZ):      0.3297283      0.3182634      0.2427147
 Basis read from rwf:  (5D, 7F)
 Pseudo-potential data read from rwf file.
 There are   210 symmetry adapted basis functions of A   symmetry.
 Integral buffers will be    131072 words long.
 Raffenetti 2 integral format.
 Two-electron integral symmetry is turned on.
   210 basis functions,   475 primitive gaussians,   228 cartesian basis functions
   100 alpha electrons      100 beta electrons
       nuclear repulsion energy      2575.9448574921 Hartrees.
 NAtoms=    9 NActive=    9 NUniq=    9 SFac= 7.50D-01 NAtFMM=   80 NAOKFM=F Big=F
 ------------------------------------------------------------------------------
 Polarizable Continuum Model (PCM)
 =================================
 Model                : PCM.
 Atomic radii         : UFF (Universal Force Field).
 Polarization charges : Total charges.
 Charge compensation  : None.
 Solution method      : Matrix inversion.
 Cavity type          : Scaled VdW (van der Waals Surface) (Alpha=1.100).
 Cavity algorithm     : GePol (No added spheres)
                        Default sphere list used, NSphG=    9.
                        Lebedev-Laikov grids with approx.  5.0 points / Ang**2.
                        Smoothing algorithm: Karplus/York (Gamma=1.0000).
                        Polarization charges: spherical gaussians, with
                                              point-specific exponents (IZeta= 3).
                        Self-potential: point-specific (ISelfS= 7).
                        Self-field    : sphere-specific E.n sum rule (ISelfD= 2).
 1st derivatives      : Analytical E(r).r(x)/FMM algorithm (CHGder, D1EAlg=3).
                        Cavity 1st derivative terms included.
 Solvent              : Water, Eps=  78.355300 Eps(inf)=   1.777849
 ------------------------------------------------------------------------------
 Spheres list:
 ISph  on   Nord    Re0     Alpha      Xe            Ye            Ze
    1  Pt      1    1.377   1.100      0.004111     -0.058502     -0.029703
    2  Br      2    2.095   1.100     -2.540100     -0.362272     -0.247535
    3  Br      3    2.095   1.100      0.379591     -2.439560     -0.139319
    4   N      4    1.830   1.100     -0.251756     -0.174884      2.151950
    5   O      5    1.750   1.100     -1.113352      0.509087      2.644500
    6   O      6    1.750   1.100      0.634897     -0.660256      2.814655
[...]
 Search for a local minimum.
 Step number  41 out of a maximum of   41
 All quantities printed in internal units (Hartrees-Bohrs-Radians)
 Mixed Optimization -- En-DIIS/RFO-DIIS
 Swaping is turned off.
 Update second derivatives using D2CorX and points    9   11   12   13   15
                                                     16   17   18   19   14
                                                     21   22   23   24   25
                                                     26   27   28   29   30
                                                     20   31   32   33   35
                                                     36   34   37   38   39
                                                     40   41
 DE=  7.93D-05 DEPred=-5.76D-06 R=-1.38D+01
 Trust test=-1.38D+01 RLast= 6.67D-02 DXMaxT set to 5.00D-02
     Eigenvalues ---    0.00000   0.00288   0.02156   0.03790   0.05034
     Eigenvalues ---    0.06225   0.08321   0.10694   0.11292   0.12942
     Eigenvalues ---    0.14672   0.19351   0.19571   0.23242   0.23910
     Eigenvalues ---    0.25424   0.25538   0.27633   0.35282   0.54742
     Eigenvalues ---    0.804871000.000001000.000001000.000001000.00000
     Eigenvalues --- 1000.000001000.000001000.000001000.000001000.00000
     Eigenvalues --- 1000.00000
 Eigenvalue     1 is   4.16D-08 Eigenvector:
                          D1        D7        D2        D8        D5
   1                    0.40474   0.38031   0.37682   0.35240   0.31952
                          D3        D6        D4        R3        R2
   1                    0.30303   0.29161   0.27511   0.13255  -0.11947
 En-DIIS/RFO-DIIS IScMMF=        0 using points:    41   40   39   38   37
 RFO step:  Lambda=-2.11585822D-05.
 DIIS coeffs:      0.11361      0.34421     -0.16861      0.27017      0.44063
 Matrix for removal  3 Erem= -11080.1571616537     Crem=-0.169D+00
 En-DIIS coeffs:      0.11361      0.34421     -0.16861      0.27017      0.44063
 Point #    5 is marked for removal
 Maximum step size (   0.050) exceeded in Quadratic search.
    -- Step size scaled by   0.852
 Iteration  1 RMS(Cart)=  0.01164641 RMS(Int)=  0.00005799
 Iteration  2 RMS(Cart)=  0.00006278 RMS(Int)=  0.00000349
 Iteration  3 RMS(Cart)=  0.00000000 RMS(Int)=  0.00000349
 Variable       Old X    -DE/DX   Delta X   Delta X   Delta X     New X
                                  (DIIS)     (GDIIS)  (Total)
    R1        4.84713   0.00001   0.00049   0.00530   0.00580   4.85292
    R2        4.84790   0.00006  -0.00003  -0.00039  -0.00042   4.84748
    R3        3.97992  -0.00027   0.00060  -0.00894  -0.00834   3.97157
    R4        4.65200   0.00011   0.00242  -0.00177   0.00065   4.65265
    R5        4.84896  -0.00010  -0.00069   0.00661   0.00592   4.85488
    R6        4.84503   0.00014   0.00303   0.00281   0.00583   4.85086
    R7        2.29671   0.00022   0.00021   0.00035   0.00056   2.29728
    R8        2.29613   0.00057   0.00069  -0.00082  -0.00013   2.29599
    A1        1.55971  -0.00038  -0.00188  -0.00514  -0.00700   1.55271
    A2        1.56775   0.00062   0.00263   0.00397   0.00660   1.57435
    A3        1.57226  -0.00013  -0.00173  -0.00457  -0.00630   1.56595
    A4        1.58131   0.00034   0.00228   0.00003   0.00232   1.58363
    A5        1.56798   0.00008   0.00146  -0.00249  -0.00103   1.56695
    A6        1.57348   0.00014  -0.00177   0.00236   0.00059   1.57407
    A7        1.57889   0.00070   0.00425   0.00376   0.00801   1.58690
    A8        1.57444  -0.00071  -0.00218   0.00071  -0.00147   1.57297
    A9        1.57802  -0.00128  -0.00666   0.00115  -0.00551   1.57250
   A10        1.56874   0.00021   0.00129  -0.00011   0.00117   1.56991
   A11        1.56370   0.00106   0.00698  -0.00102   0.00595   1.56966
   A12        1.56328  -0.00066  -0.00464   0.00132  -0.00331   1.55996
   A13        2.06108   0.00003   0.00024   0.00014   0.00038   2.06146
   A14        2.06055   0.00023   0.00107  -0.00085   0.00022   2.06077
   A15        2.16155  -0.00026  -0.00130   0.00072  -0.00059   2.16096
    D1       -0.77792  -0.00007   0.00615   0.01038   0.01653  -0.76139
    D2        2.36824  -0.00021   0.00215   0.00777   0.00993   2.37816
    D3       -2.33765   0.00031   0.00803   0.01552   0.02356  -2.31409
    D4        0.80852   0.00017   0.00404   0.01291   0.01695   0.82547
    D5        2.36666  -0.00039   0.00378   0.01177   0.01554   2.38221
    D6       -0.77036  -0.00053  -0.00022   0.00916   0.00894  -0.76142
    D7        0.80336   0.00028   0.00844   0.01044   0.01888   0.82224
    D8       -2.33366   0.00014   0.00445   0.00783   0.01227  -2.32139
         Item               Value     Threshold  Converged?
 Maximum Force            0.001284     0.000450     NO 
 RMS     Force            0.000449     0.000300     NO 
 Maximum Displacement     0.027414     0.001800     NO 
 RMS     Displacement     0.011654     0.001200     NO 
 Predicted change in Energy=-2.232649D-05
 Optimization stopped.
    -- Number of steps exceeded,  NStep=  41
    -- Flag reset to prevent archiving.
                           ----------------------------
                           ! Non-Optimized Parameters !
                           ! (Angstroms and Degrees)  !
 --------------------------                            --------------------------
 ! Name  Definition              Value          Derivative Info.                !
 --------------------------------------------------------------------------------
 ! R1    R(1,2)                  2.5681         -DE/DX =    0.0                 !
 ! R2    R(1,3)                  2.5652         -DE/DX =    0.0001              !
 ! R3    R(1,4)                  2.1017         -DE/DX =   -0.0003              !
 ! R4    R(1,7)                  2.4621         -DE/DX =    0.0001              !
 ! R5    R(1,8)                  2.5691         -DE/DX =   -0.0001              !
 ! R6    R(1,9)                  2.567          -DE/DX =    0.0001              !
 ! R7    R(4,5)                  1.2157         -DE/DX =    0.0002              !
 ! R8    R(4,6)                  1.215          -DE/DX =    0.0006              !
 ! A1    A(2,1,3)               88.9638         -DE/DX =   -0.0004              !
 ! A2    A(2,1,4)               90.2034         -DE/DX =    0.0006              !
 ! A3    A(2,1,7)               89.7226         -DE/DX =   -0.0001              !
 ! A4    A(2,1,9)               90.7352         -DE/DX =    0.0003              !
 ! A5    A(3,1,4)               89.7794         -DE/DX =    0.0001              !
 ! A6    A(3,1,7)               90.1876         -DE/DX =    0.0001              !
 ! A7    A(3,1,8)               90.9225         -DE/DX =    0.0007              !
 ! A8    A(4,1,8)               90.1246         -DE/DX =   -0.0007              !
 ! A9    A(4,1,9)               90.0979         -DE/DX =   -0.0013              !
 ! A10   A(7,1,8)               89.9494         -DE/DX =    0.0002              !
 ! A11   A(7,1,9)               89.9348         -DE/DX =    0.0011              !
 ! A12   A(8,1,9)               89.3793         -DE/DX =   -0.0007              !
 ! A13   A(1,4,5)              118.1127         -DE/DX =    0.0                 !
 ! A14   A(1,4,6)              118.0732         -DE/DX =    0.0002              !
 ! A15   A(5,4,6)              123.814          -DE/DX =   -0.0003              !
 ! D1    D(2,1,4,5)            -43.6246         -DE/DX =   -0.0001              !
 ! D2    D(2,1,4,6)            136.2588         -DE/DX =   -0.0002              !
 ! D3    D(3,1,4,5)           -132.5876         -DE/DX =    0.0003              !
 ! D4    D(3,1,4,6)             47.2958         -DE/DX =    0.0002              !
 ! D5    D(8,1,4,5)            136.4904         -DE/DX =   -0.0004              !
 ! D6    D(8,1,4,6)            -43.6262         -DE/DX =   -0.0005              !
 ! D7    D(9,1,4,5)             47.1109         -DE/DX =    0.0003              !
 ! D8    D(9,1,4,6)           -133.0057         -DE/DX =    0.0001              !
 --------------------------------------------------------------------------------
 GradGradGradGradGradGradGradGradGradGradGradGradGradGradGradGradGradGrad

                          Input orientation:                          
 ---------------------------------------------------------------------
 Center     Atomic      Atomic             Coordinates (Angstroms)
 Number     Number       Type             X           Y           Z
 ---------------------------------------------------------------------
      1         78           0       -0.443483    0.380018    0.063670
      2         35           0       -0.427824    0.227002   -2.496703
      3         35           0        2.117156    0.223864    0.060177
      4          7           0       -0.565397   -1.719203    0.181942
      5          8           0       -1.344923   -2.289643   -0.555662
      6          8           0        0.144420   -2.288497    0.987193
      7         17           0       -0.300686    2.833489   -0.078478
      8         35           0       -0.451387    0.534169    2.624983
      9         35           0       -3.001903    0.547248    0.065027
 ---------------------------------------------------------------------
                    Distance matrix (angstroms):
                    1          2          3          4          5
     1  Pt   0.000000
     2  Br   2.564988   0.000000
     3  Br   2.565399   3.607571   0.000000
     4  N    2.106082   3.313877   3.314578   0.000000
     5  O    2.885005   3.307901   4.322379   1.215369   0.000000
     6  O    2.884354   4.335058   3.326110   1.215057   2.144422
     7  Cl   2.461731   3.557773   3.560243   4.567811   5.250201
     8  Br   2.565960   5.130942   3.643066   3.325527   4.346127
     9  Br   2.563879   3.645668   5.129266   3.329720   3.343470
                    6          7          8          9
     6  O    0.000000
     7  Cl   5.250573   0.000000
     8  Br   3.317346   3.552223   0.000000
     9  Br   4.334880   3.541759   3.613679   0.000000
 Stoichiometry    Br4ClNO2Pt(2-)
 Framework group  C1[X(Br4ClNO2Pt)]
 Deg. of freedom    21
 Full point group                 C1      NOp   1
 Largest Abelian subgroup         C1      NOp   1
 Largest concise Abelian subgroup C1      NOp   1
                         Standard orientation:                         
 ---------------------------------------------------------------------
 Center     Atomic      Atomic             Coordinates (Angstroms)
 Number     Number       Type             X           Y           Z
 ---------------------------------------------------------------------
      1         78           0       -0.000760    0.001697   -0.059257
      2         35           0       -1.882919   -1.740881   -0.067358
      3         35           0        1.721131   -1.899885   -0.078034
      4          7           0        0.004048   -0.022745    2.046677
      5          8           0       -1.066328    0.003846    2.621752
      6          8           0        1.077201   -0.057714    2.615434
      7         17           0       -0.009064    0.027408   -2.520839
      8         35           0        1.887318    1.739301   -0.052754
      9         35           0       -1.722730    1.901233   -0.051793
 ---------------------------------------------------------------------
 Rotational constants (GHZ):      0.3260032      0.3223609      0.2390885

 **********************************************************************

            Population analysis using the SCF density.

 **********************************************************************

 Orbital symmetries:
       Occupied  (A) (A) (A) (A) (A) (A) (A) (A) (A) (A) (A) (A)
                 (A) (A) (A) (A) (A) (A) (A) (A) (A) (A) (A) (A)
                 (A) (A) (A) (A) (A) (A) (A) (A) (A) (A) (A) (A)
                 (A) (A) (A) (A) (A) (A) (A) (A) (A) (A) (A) (A)
                 (A) (A) (A) (A) (A) (A) (A) (A) (A) (A) (A) (A)
                 (A) (A) (A) (A) (A) (A) (A) (A) (A) (A) (A) (A)
                 (A) (A) (A) (A) (A) (A) (A) (A) (A) (A) (A) (A)
                 (A) (A) (A) (A) (A) (A) (A) (A) (A) (A) (A) (A)
                 (A) (A) (A) (A)
       Virtual   (A) (A) (A) (A) (A) (A) (A) (A) (A) (A) (A) (A)
                 (A) (A) (A) (A) (A) (A) (A) (A) (A) (A) (A) (A)
                 (A) (A) (A) (A) (A) (A) (A) (A) (A) (A) (A) (A)
                 (A) (A) (A) (A) (A) (A) (A) (A) (A) (A) (A) (A)
                 (A) (A) (A) (A) (A) (A) (A) (A) (A) (A) (A) (A)
                 (A) (A) (A) (A) (A) (A) (A) (A) (A) (A) (A) (A)
                 (A) (A) (A) (A) (A) (A) (A) (A) (A) (A) (A) (A)
                 (A) (A) (A) (A) (A) (A) (A) (A) (A) (A) (A) (A)
                 (A) (A) (A) (A) (A) (A) (A) (A) (A) (A) (A) (A)
                 (A) (A)
 The electronic state is 1-A.
 Alpha  occ. eigenvalues -- -482.74849-482.74838-482.74827-482.74822-101.43491
 Alpha  occ. eigenvalues --  -62.42956 -62.42945 -62.42935 -62.42929 -56.26157
 Alpha  occ. eigenvalues --  -56.26146 -56.26136 -56.26131 -56.25859 -56.25855
 Alpha  occ. eigenvalues --  -56.25849 -56.25844 -56.25838 -56.25834 -56.25833
 Alpha  occ. eigenvalues --  -56.25828 -19.15805 -19.15799 -14.53106  -9.38664
 Alpha  occ. eigenvalues --   -8.64665  -8.64654  -8.64643  -8.64638  -7.15390
 Alpha  occ. eigenvalues --   -7.14692  -7.14691  -6.47846  -6.47835  -6.47826
 Alpha  occ. eigenvalues --   -6.47819  -6.46805  -6.46794  -6.46789  -6.46784
 Alpha  occ. eigenvalues --   -6.46779  -6.46778  -6.46767  -6.46762  -4.00677
 Alpha  occ. eigenvalues --   -2.59286  -2.59275  -2.59266  -2.59259  -2.59005
 Alpha  occ. eigenvalues --   -2.58994  -2.58993  -2.58984  -2.58981  -2.58978
 Alpha  occ. eigenvalues --   -2.58971  -2.58965  -2.58175  -2.58174  -2.58164
 Alpha  occ. eigenvalues --   -2.58163  -2.58153  -2.58152  -2.58148  -2.58148
 Alpha  occ. eigenvalues --   -2.21832  -2.21630  -2.21599  -1.20358  -1.03374
 Alpha  occ. eigenvalues --   -0.74172  -0.72533  -0.71553  -0.71482  -0.71472
 Alpha  occ. eigenvalues --   -0.62942  -0.53054  -0.51643  -0.49964  -0.38514
 Alpha  occ. eigenvalues --   -0.38492  -0.36923  -0.36666  -0.35939  -0.35222
 Alpha  occ. eigenvalues --   -0.31071  -0.31042  -0.30279  -0.27747  -0.27318
 Alpha  occ. eigenvalues --   -0.25518  -0.25407  -0.25316  -0.25233  -0.25207
 Alpha  occ. eigenvalues --   -0.25160  -0.24964  -0.24275  -0.24046  -0.23475
 Alpha virt. eigenvalues --   -0.12245  -0.10168  -0.04564   0.05305   0.05734
 Alpha virt. eigenvalues --    0.05785   0.07958   0.20798   0.20996   0.21462
 Alpha virt. eigenvalues --    0.29514   0.33320   0.34969   0.35146   0.35566
 Alpha virt. eigenvalues --    0.40277   0.40480   0.45828   0.47149   0.51595
 Alpha virt. eigenvalues --    0.51887   0.53583   0.54103   0.55040   0.55207
 Alpha virt. eigenvalues --    0.55508   0.55884   0.55906   0.56205   0.56328
 Alpha virt. eigenvalues --    0.56524   0.57552   0.57636   0.58523   0.60627
 Alpha virt. eigenvalues --    0.60689   0.61873   0.61973   0.62312   0.63167
 Alpha virt. eigenvalues --    0.66730   0.68950   0.71997   0.72716   0.73102
 Alpha virt. eigenvalues --    0.77150   0.77869   0.81085   0.82281   0.82779
 Alpha virt. eigenvalues --    0.87778   0.88491   0.90931   0.91418   0.91883
 Alpha virt. eigenvalues --    0.92435   0.93509   0.94883   0.97076   0.97672
 Alpha virt. eigenvalues --    1.00152   1.00292   1.05864   1.06310   1.11317
 Alpha virt. eigenvalues --    1.13337   1.14032   1.15354   1.19022   1.23231
 Alpha virt. eigenvalues --    1.24547   1.34305   1.39673   1.42781   1.82631
 Alpha virt. eigenvalues --    1.95637   1.98618   2.40477   2.41234   2.61181
 Alpha virt. eigenvalues --    2.63407   2.64746   2.71468   3.00738   3.05909
 Alpha virt. eigenvalues --    3.30431   3.36679   3.43726   3.43748   3.44231
 Alpha virt. eigenvalues --    3.44249   3.44833   3.45013   3.45110   3.46488
 Alpha virt. eigenvalues --    3.46524   3.46935   3.47312   3.47456   3.57393
 Alpha virt. eigenvalues --    3.57786   3.61944   3.65086   3.66677   3.66899
 Alpha virt. eigenvalues --    3.69444   3.75583   3.75743   3.84931   9.47778
          Condensed to atoms (all electrons):
              1          2          3          4          5          6
     1  Pt  17.265124   0.222018   0.221740   0.136170  -0.031859  -0.032091
     2  Br   0.222018  35.044909  -0.019688  -0.012263   0.000213  -0.000092
     3  Br   0.221740  -0.019688  35.045547  -0.012046  -0.000103   0.000320
     4  N    0.136170  -0.012263  -0.012046   6.206521   0.282426   0.282712
     5  O   -0.031859   0.000213  -0.000103   0.282426   8.106888  -0.102588
     6  O   -0.032091  -0.000092   0.000320   0.282712  -0.102588   8.106271
     7  Cl   0.265175  -0.011290  -0.011274  -0.001056   0.000018   0.000018
     8  Br   0.222284  -0.002099  -0.016620  -0.011763  -0.000092   0.000217
     9  Br   0.222157  -0.016489  -0.002112  -0.011370   0.000304  -0.000103
              7          8          9
     1  Pt   0.265175   0.222284   0.222157
     2  Br  -0.011290  -0.002099  -0.016489
     3  Br  -0.011274  -0.016620  -0.002112
     4  N   -0.001056  -0.011763  -0.011370
     5  O    0.000018  -0.000092   0.000304
     6  O    0.000018   0.000217  -0.000103
     7  Cl  17.099456  -0.011508  -0.011933
     8  Br  -0.011508  35.044925  -0.019376
     9  Br  -0.011933  -0.019376  35.044443
 Mulliken atomic charges:
              1
     1  Pt  -0.490719
     2  Br  -0.205218
     3  Br  -0.205763
     4  N    0.140669
     5  O   -0.255209
     6  O   -0.254664
     7  Cl  -0.317606
     8  Br  -0.205968
     9  Br  -0.205522
 Sum of Mulliken atomic charges =  -2.00000
 Mulliken charges with hydrogens summed into heavy atoms:
              1
     1  Pt  -0.490719
     2  Br  -0.205218
     3  Br  -0.205763
     4  N    0.140669
     5  O   -0.255209
     6  O   -0.254664
     7  Cl  -0.317606
     8  Br  -0.205968
     9  Br  -0.205522
 Sum of Mulliken charges with hydrogens summed into heavy atoms =  -2.00000
 Electronic spatial extent (au):  <R**2>=           4589.0071
 Charge=             -2.0000 electrons
 Dipole moment (field-independent basis, Debye):
    X=             -0.0016    Y=             -0.0163    Z=              1.0618  Tot=              1.0620
 Quadrupole moment (field-independent basis, Debye-Ang):
   XX=           -157.2983   YY=           -152.9108   ZZ=           -159.6658
   XY=              0.1050   XZ=             -0.0134   YZ=              0.1273
 Traceless Quadrupole moment (field-independent basis, Debye-Ang):
   XX=             -0.6734   YY=              3.7142   ZZ=             -3.0408
   XY=              0.1050   XZ=             -0.0134   YZ=              0.1273
 Octapole moment (field-independent basis, Debye-Ang**2):
  XXX=             -0.0785  YYY=             -0.1401  ZZZ=             -8.1321  XYY=             -0.0312
  XXY=              0.0530  XXZ=             -7.9776  XZZ=              0.0808  YZZ=              0.1516
  YYZ=              4.6923  XYZ=              0.3900
 Hexadecapole moment (field-independent basis, Debye-Ang**3):
 XXXX=          -1794.5371 YYYY=          -1744.9093 ZZZZ=          -1433.9456 XXXY=             -0.5498
 XXXZ=             -0.4390 YYYX=              0.8630 YYYZ=              1.0055 ZZZX=             -0.4546
 ZZZY=              3.1782 XXYY=           -594.9978 XXZZ=           -534.6765 YYZZ=           -494.0883
 XXYZ=              0.6010 YYXZ=             -0.0631 ZZXY=              1.0200
 N-N= 2.569150033432D+03 E-N=-3.163273236357D+04  KE= 1.098372768352D+04


 WE DON'T KNOW ONE MILLIONTH OF ONE PERCENT ABOUT
 ANYTHING.
                                     T. A. EDISON.
 Error termination request processed by link 9999.
 Error termination via Lnk1e in /scr/programs/g09/l9999.exe at Wed Dec  1 05:55:50 2021.
 Job cpu time:  0 days 21 hours 27 minutes 42.4 seconds.
 File lengths (MBytes):  RWF=    111 Int=      0 D2E=      0 Chk=      5 Scr=      1
