 Entering Gaussian System, Link 0=g09
 Input=estrutura35_D2O.com
 Output=estrutura35_D2O.log
 Initial command:
 /home/scr/programs/g09/l1.exe "/home/scr/diego/Gau-21007.inp" -scrdir="/home/scr/diego/"
 Entering Link 1 = /home/scr/programs/g09/l1.exe PID=     21009.
  
 Copyright (c) 1988,1990,1992,1993,1995,1998,2003,2009,2013,
            Gaussian, Inc.  All Rights Reserved.
  
 This is part of the Gaussian(R) 09 program.  It is based on
 the Gaussian(R) 03 system (copyright 2003, Gaussian, Inc.),
 the Gaussian(R) 98 system (copyright 1998, Gaussian, Inc.),
 the Gaussian(R) 94 system (copyright 1995, Gaussian, Inc.),
 the Gaussian 92(TM) system (copyright 1992, Gaussian, Inc.),
 the Gaussian 90(TM) system (copyright 1990, Gaussian, Inc.),
 the Gaussian 88(TM) system (copyright 1988, Gaussian, Inc.),
 the Gaussian 86(TM) system (copyright 1986, Carnegie Mellon
 University), and the Gaussian 82(TM) system (copyright 1983,
 Carnegie Mellon University). Gaussian is a federally registered
 trademark of Gaussian, Inc.
  
 This software contains proprietary and confidential information,
 including trade secrets, belonging to Gaussian, Inc.
  
 This software is provided under written license and may be
 used, copied, transmitted, or stored only in accord with that
 written license.
  
 The following legend is applicable only to US Government
 contracts under FAR:
  
                    RESTRICTED RIGHTS LEGEND
  
 Use, reproduction and disclosure by the US Government is
 subject to restrictions as set forth in subparagraphs (a)
 and (c) of the Commercial Computer Software - Restricted
 Rights clause in FAR 52.227-19.
  
 Gaussian, Inc.
 340 Quinnipiac St., Bldg. 40, Wallingford CT 06492
  
  
 ---------------------------------------------------------------
 Warning -- This program may not be used in any manner that
 competes with the business of Gaussian, Inc. or will provide
 assistance to any competitor of Gaussian, Inc.  The licensee
 of this program is prohibited from giving any competitor of
 Gaussian, Inc. access to this program.  By using this program,
 the user acknowledges that Gaussian, Inc. is engaged in the
 business of creating and licensing software in the field of
 computational chemistry and represents and warrants to the
 licensee that it is not a competitor of Gaussian, Inc. and that
 it will not use this program in any manner prohibited above.
 ---------------------------------------------------------------
  

 Cite this work as:
 Gaussian 09, Revision D.01,
 M. J. Frisch, G. W. Trucks, H. B. Schlegel, G. E. Scuseria, 
 M. A. Robb, J. R. Cheeseman, G. Scalmani, V. Barone, B. Mennucci, 
 G. A. Petersson, H. Nakatsuji, M. Caricato, X. Li, H. P. Hratchian, 
 A. F. Izmaylov, J. Bloino, G. Zheng, J. L. Sonnenberg, M. Hada, 
 M. Ehara, K. Toyota, R. Fukuda, J. Hasegawa, M. Ishida, T. Nakajima, 
 Y. Honda, O. Kitao, H. Nakai, T. Vreven, J. A. Montgomery, Jr., 
 J. E. Peralta, F. Ogliaro, M. Bearpark, J. J. Heyd, E. Brothers, 
 K. N. Kudin, V. N. Staroverov, T. Keith, R. Kobayashi, J. Normand, 
 K. Raghavachari, A. Rendell, J. C. Burant, S. S. Iyengar, J. Tomasi, 
 M. Cossi, N. Rega, J. M. Millam, M. Klene, J. E. Knox, J. B. Cross, 
 V. Bakken, C. Adamo, J. Jaramillo, R. Gomperts, R. E. Stratmann, 
 O. Yazyev, A. J. Austin, R. Cammi, C. Pomelli, J. W. Ochterski, 
 R. L. Martin, K. Morokuma, V. G. Zakrzewski, G. A. Voth, 
 P. Salvador, J. J. Dannenberg, S. Dapprich, A. D. Daniels, 
 O. Farkas, J. B. Foresman, J. V. Ortiz, J. Cioslowski, 
 and D. J. Fox, Gaussian, Inc., Wallingford CT, 2013.
 
 ******************************************
 Gaussian 09:  EM64L-G09RevD.01 24-Apr-2013
                18-Aug-2021 
 ******************************************
 %mem=15gb
 %nproc=8
 Will use up to    8 processors via shared memory.
 ------------------------------------------------------------
 #b3lyp/gen pseudo=read opt freq=noraman scrf=(solvent=water)
 ------------------------------------------------------------
 1/14=-1,18=20,19=15,26=3,38=1/1,3;
 2/9=110,12=2,17=6,18=5,40=1/2;
 3/5=7,11=2,16=1,17=8,25=1,30=1,70=2201,71=1,72=1,74=-5/1,2,3;
 4//1;
 5/5=2,38=5,53=1/2;
 6/7=2,8=2,9=2,10=2,28=1/1;
 7//1,2,3,16;
 1/14=-1,18=20,19=15,26=3/3(2);
 2/9=110/2;
 99//99;
 2/9=110/2;
 3/5=7,6=1,11=2,16=1,17=8,25=1,30=1,70=2205,71=1,72=1,74=-5,82=7/1,2,3;
 4/5=5,16=3,69=1/1;
 5/5=2,38=5,53=1/2;
 7//1,2,3,16;
 1/14=-1,18=20,19=15,26=3/3(-5);
 2/9=110/2;
 6/7=2,8=2,9=2,10=2,19=2,28=1/1;
 99/9=1/99;
 ------------
 Estrutura 35
 ------------
 Symbolic Z-matrix:
 Charge = -2 Multiplicity = 1
 Pt                   -0.31955   0.33835   0. 
 Br                   -0.31955   0.33835  -2.43 
 Br                    1.67045   0.33835   0. 
 Br                   -0.31955   2.76835   0. 
 Br                   -0.31955  -1.65165   0. 
 Cl                   -0.31955   0.33835   2.28 
 N                    -2.30955   0.33835   0. 
 O                    -2.76288   1.58503   0.2998 
 O                    -2.76288  -0.54463   0.92976 
 

 GradGradGradGradGradGradGradGradGradGradGradGradGradGradGradGradGradGrad
 Berny optimization.
 Initialization pass.
                           ----------------------------
                           !    Initial Parameters    !
                           ! (Angstroms and Degrees)  !
 --------------------------                            --------------------------
 ! Name  Definition              Value          Derivative Info.                !
 --------------------------------------------------------------------------------
 ! R1    R(1,2)                  2.43           estimate D2E/DX2                !
 ! R2    R(1,3)                  1.99           estimate D2E/DX2                !
 ! R3    R(1,4)                  2.43           estimate D2E/DX2                !
 ! R4    R(1,5)                  1.99           estimate D2E/DX2                !
 ! R5    R(1,6)                  2.28           estimate D2E/DX2                !
 ! R6    R(1,7)                  1.99           estimate D2E/DX2                !
 ! R7    R(7,8)                  1.36           estimate D2E/DX2                !
 ! R8    R(7,9)                  1.36           estimate D2E/DX2                !
 ! A1    A(2,1,3)               90.0            estimate D2E/DX2                !
 ! A2    A(2,1,4)               90.0            estimate D2E/DX2                !
 ! A3    A(2,1,5)               90.0            estimate D2E/DX2                !
 ! A4    A(2,1,7)               90.0            estimate D2E/DX2                !
 ! A5    A(3,1,4)               90.0            estimate D2E/DX2                !
 ! A6    A(3,1,5)               90.0            estimate D2E/DX2                !
 ! A7    A(3,1,6)               90.0            estimate D2E/DX2                !
 ! A8    A(4,1,6)               90.0            estimate D2E/DX2                !
 ! A9    A(4,1,7)               90.0            estimate D2E/DX2                !
 ! A10   A(5,1,6)               90.0            estimate D2E/DX2                !
 ! A11   A(5,1,7)               90.0            estimate D2E/DX2                !
 ! A12   A(6,1,7)               90.0            estimate D2E/DX2                !
 ! A13   A(1,7,8)              109.4712         estimate D2E/DX2                !
 ! A14   A(1,7,9)              109.4712         estimate D2E/DX2                !
 ! A15   A(8,7,9)              109.4713         estimate D2E/DX2                !
 ! A16   L(2,1,6,3,-1)         180.0            estimate D2E/DX2                !
 ! A17   L(3,1,7,2,-1)         180.0            estimate D2E/DX2                !
 ! A18   L(4,1,5,2,-1)         180.0            estimate D2E/DX2                !
 ! A19   L(2,1,6,3,-2)         180.0            estimate D2E/DX2                !
 ! A20   L(3,1,7,2,-2)         180.0            estimate D2E/DX2                !
 ! A21   L(4,1,5,2,-2)         180.0            estimate D2E/DX2                !
 ! D1    D(2,1,7,8)           -103.5217         estimate D2E/DX2                !
 ! D2    D(2,1,7,9)            136.4783         estimate D2E/DX2                !
 ! D3    D(4,1,7,8)            -13.5217         estimate D2E/DX2                !
 ! D4    D(4,1,7,9)           -133.5217         estimate D2E/DX2                !
 ! D5    D(5,1,7,8)            166.4783         estimate D2E/DX2                !
 ! D6    D(5,1,7,9)             46.4783         estimate D2E/DX2                !
 ! D7    D(6,1,7,8)             76.4783         estimate D2E/DX2                !
 ! D8    D(6,1,7,9)            -43.5217         estimate D2E/DX2                !
 --------------------------------------------------------------------------------
 Trust Radius=3.00D-01 FncErr=1.00D-07 GrdErr=1.00D-06
 Number of steps in this run=     47 maximum allowed number of steps=    100.
 GradGradGradGradGradGradGradGradGradGradGradGradGradGradGradGradGradGrad

                          Input orientation:                          
 ---------------------------------------------------------------------
 Center     Atomic      Atomic             Coordinates (Angstroms)
 Number     Number       Type             X           Y           Z
 ---------------------------------------------------------------------
      1         78           0       -0.319549    0.338346    0.000000
      2         35           0       -0.319549    0.338346   -2.430000
      3         35           0        1.670451    0.338346    0.000000
      4         35           0       -0.319549    2.768346    0.000000
      5         35           0       -0.319549   -1.651654    0.000000
      6         17           0       -0.319549    0.338346    2.280000
      7          7           0       -2.309549    0.338346    0.000000
      8          8           0       -2.762882    1.585025    0.299800
      9          8           0       -2.762882   -0.544629    0.929755
 ---------------------------------------------------------------------
                    Distance matrix (angstroms):
                    1          2          3          4          5
     1  Pt   0.000000
     2  Br   2.430000   0.000000
     3  Br   1.990000   3.140860   0.000000
     4  Br   2.430000   3.436539   3.140860   0.000000
     5  Br   1.990000   3.140860   2.814285   4.420000   0.000000
     6  Cl   2.280000   4.710000   3.026301   3.332161   3.026301
     7  N    1.990000   3.140860   3.980000   3.140860   2.814285
     8  O    2.759341   3.869870   4.615033   2.731301   4.066429
     9  O    2.759341   4.247055   4.615033   4.220204   2.838983
                    6          7          8          9
     6  Cl   0.000000
     7  N    3.026301   0.000000
     8  O    3.383087   1.360000   0.000000
     9  O    2.927914   1.360000   2.220871   0.000000
 Stoichiometry    Br4ClNO2Pt(2-)
 Framework group  C1[X(Br4ClNO2Pt)]
 Deg. of freedom    21
 Full point group                 C1      NOp   1
 Largest Abelian subgroup         C1      NOp   1
 Largest concise Abelian subgroup C1      NOp   1
                         Standard orientation:                         
 ---------------------------------------------------------------------
 Center     Atomic      Atomic             Coordinates (Angstroms)
 Number     Number       Type             X           Y           Z
 ---------------------------------------------------------------------
      1         78           0        0.063604   -0.158388   -0.004573
      2         35           0        0.093752    2.050660   -1.016550
      3         35           0        0.229099    0.665675    1.799209
      4         35           0       -2.357791   -0.046902    0.166655
      5         35           0        2.046557   -0.249687   -0.144797
      6         17           0        0.035317   -2.231075    0.944936
      7          7           0       -0.101891   -0.982452   -1.808355
      8          8           0       -1.385576   -1.385522   -2.006568
      9          8           0        0.728721   -2.055904   -1.894287
 ---------------------------------------------------------------------
 Rotational constants (GHZ):      0.4204658      0.3735086      0.3420468
 General basis read from cards:  (5D, 7F)
 ======================================================================================================
                                       Pseudopotential Parameters
 ======================================================================================================
  Center     Atomic      Valence      Angular      Power
  Number     Number     Electrons     Momentum     of R      Exponent        Coefficient   SO-Coeffient
 ======================================================================================================
    1         78           18
                                      G and up 
                                                     1      728.9394056       -0.16192680    0.00000000
                                                     2      320.6567800    -1320.28738520    0.00000000
                                                     2       52.8680174     -298.31781350    0.00000000
                                                     2       12.0280128      -87.58370650    0.00000000
                                                     2        3.5238913       -8.14932740    0.00000000
                                      S - G
                                                     0      409.4437358        2.73342180    0.00000000
                                                     1      274.5419231       59.70243290    0.00000000
                                                     2      127.5658570      891.45895500    0.00000000
                                                     2       32.9036631      368.44676560    0.00000000
                                                     2        5.0593880      238.02630900    0.00000000
                                                     2        4.1506556     -107.05564540    0.00000000
                                      P - G
                                                     0      466.1728892        1.88785680    0.00000000
                                                     1      120.7888259       76.01386290    0.00000000
                                                     2       36.4118791      343.55111160    0.00000000
                                                     2        5.6985408      119.49117860    0.00000000
                                      D - G
                                                     0      249.5650763        2.93436780    0.00000000
                                                     1      126.6678585       59.33065710    0.00000000
                                                     2       63.1430586      452.44451940    0.00000000
                                                     2       17.9059470      210.47694790    0.00000000
                                                     2        4.2239373       58.62541120    0.00000000
                                      F - G
                                                     0      121.8158799        3.95342530    0.00000000
                                                     1       60.8757030       53.85551820    0.00000000
                                                     2       31.4767147      247.43051330    0.00000000
                                                     2        9.8811751      127.81879760    0.00000000
                                                     2        2.7319874       15.37720460    0.00000000
    2         35
                                   No pseudopotential on this center.
    3         35
                                   No pseudopotential on this center.
    4         35
                                   No pseudopotential on this center.
    5         35
                                   No pseudopotential on this center.
    6         17
                                   No pseudopotential on this center.
    7          7
                                   No pseudopotential on this center.
    8          8
                                   No pseudopotential on this center.
    9          8
                                   No pseudopotential on this center.
 ======================================================================================================
 There are   228 symmetry adapted cartesian basis functions of A   symmetry.
 There are   210 symmetry adapted basis functions of A   symmetry.
   210 basis functions,   475 primitive gaussians,   228 cartesian basis functions
   100 alpha electrons      100 beta electrons
       nuclear repulsion energy      2925.4933103528 Hartrees.
 NAtoms=    9 NActive=    9 NUniq=    9 SFac= 1.00D+00 NAtFMM=   60 NAOKFM=F Big=F
 Integral buffers will be    131072 words long.
 Raffenetti 2 integral format.
 Two-electron integral symmetry is turned on.
 ------------------------------------------------------------------------------
 Polarizable Continuum Model (PCM)
 =================================
 Model                : PCM (using non-symmetric T matrix).
 Atomic radii         : UFF (Universal Force Field).
 Polarization charges : Total charges.
 Charge compensation  : None.
 Solution method      : On-the-fly selection.
 Cavity type          : Scaled VdW (van der Waals Surface) (Alpha=1.100).
 Cavity algorithm     : GePol (No added spheres)
                        Default sphere list used, NSphG=    9.
                        Lebedev-Laikov grids with approx.  5.0 points / Ang**2.
                        Smoothing algorithm: Karplus/York (Gamma=1.0000).
                        Polarization charges: spherical gaussians, with
                                              point-specific exponents (IZeta= 3).
                        Self-potential: point-specific (ISelfS= 7).
                        Self-field    : sphere-specific E.n sum rule (ISelfD= 2).
 1st derivatives      : Analytical E(r).r(x)/FMM algorithm (CHGder, D1EAlg=3).
                        Cavity 1st derivative terms included.
 Solvent              : Water, Eps=  78.355300 Eps(inf)=   1.777849
 ------------------------------------------------------------------------------
 Spheres list:
 ISph  on   Nord     Re0    Alpha      Xe            Ye            Ze
    1  Pt      1    1.3770  1.100      0.063604     -0.158388     -0.004573
    2  Br      2    2.0945  1.100      0.093752      2.050660     -1.016550
    3  Br      3    2.0945  1.100      0.229099      0.665675      1.799209
    4  Br      4    2.0945  1.100     -2.357791     -0.046902      0.166655
    5  Br      5    2.0945  1.100      2.046557     -0.249687     -0.144797
    6  Cl      6    1.9735  1.100      0.035317     -2.231075      0.944936
    7   N      7    1.8300  1.100     -0.101891     -0.982452     -1.808355
    8   O      8    1.7500  1.100     -1.385576     -1.385522     -2.006568
    9   O      9    1.7500  1.100      0.728721     -2.055904     -1.894287
 ------------------------------------------------------------------------------
 One-electron integrals computed using PRISM.
   1 Symmetry operations used in ECPInt.
 ECPInt:  NShTT=    3403 NPrTT=   18378 LenC2=    3120 LenP2D=   11513.
 LDataN:  DoStor=T MaxTD1= 6 Len=  172
 NBasis=   210 RedAO= T EigKep=  1.74D-03  NBF=   210
 NBsUse=   210 1.00D-06 EigRej= -1.00D+00 NBFU=   210
 Defaulting to unpruned grid for atomic number  78.
 ExpMin= 2.90D-02 ExpMax= 1.13D+05 ExpMxC= 1.70D+04 IAcc=3 IRadAn=         5 AccDes= 0.00D+00
 Harris functional with IExCor=  402 and IRadAn=       5 diagonalized for initial guess.
 HarFok:  IExCor=  402 AccDes= 0.00D+00 IRadAn=         5 IDoV= 1 UseB2=F ITyADJ=14
 ICtDFT=  3500011 ScaDFX=  1.000000  1.000000  1.000000  1.000000
 Defaulting to unpruned grid for atomic number  78.
 Defaulting to unpruned grid for atomic number  78.
 Defaulting to unpruned grid for atomic number  78.
 Defaulting to unpruned grid for atomic number  78.
 Defaulting to unpruned grid for atomic number  78.
 Defaulting to unpruned grid for atomic number  78.
 Defaulting to unpruned grid for atomic number  78.
 Defaulting to unpruned grid for atomic number  78.
 FoFCou: FMM=F IPFlag=           0 FMFlag=      100000 FMFlg1=           0
         NFxFlg=           0 DoJE=T BraDBF=F KetDBF=T FulRan=T
         wScrn=  0.000000 ICntrl=     500 IOpCl=  0 I1Cent=   200000004 NGrid=           0
         NMat0=    1 NMatS0=      1 NMatT0=    0 NMatD0=    1 NMtDS0=    0 NMtDT0=    0
 Petite list used in FoFCou.
 Keep R1 ints in memory in canonical form, NReq=251615474.
 Requested convergence on RMS density matrix=1.00D-08 within 128 cycles.
 Requested convergence on MAX density matrix=1.00D-06.
 Requested convergence on             energy=1.00D-06.
 No special actions if energy rises.
 Defaulting to unpruned grid for atomic number  78.
 Defaulting to unpruned grid for atomic number  78.
 Defaulting to unpruned grid for atomic number  78.
 Defaulting to unpruned grid for atomic number  78.
 Defaulting to unpruned grid for atomic number  78.
 Defaulting to unpruned grid for atomic number  78.
 Defaulting to unpruned grid for atomic number  78.
 Defaulting to unpruned grid for atomic number  78.
 Inv3:  Mode=1 IEnd=     6759003.
 Iteration    1 A*A^-1 deviation from unit magnitude is 6.99D-15 for    463.
 Iteration    1 A*A^-1 deviation from orthogonality  is 3.53D-15 for    863    296.
 Iteration    1 A^-1*A deviation from unit magnitude is 6.22D-15 for    479.
 Iteration    1 A^-1*A deviation from orthogonality  is 1.84D-12 for    945    885.
 EnCoef did     2 forward-backward iterations
 EnCoef did   100 forward-backward iterations
 EnCoef did     5 forward-backward iterations
 Error on total polarization charges =  0.01824
 SCF Done:  E(RB3LYP) =  -11079.7793720     A.U. after   18 cycles
            NFock= 18  Conv=0.81D-08     -V/T= 2.0085

 **********************************************************************

            Population analysis using the SCF density.

 **********************************************************************

 Orbital symmetries:
       Occupied  (A) (A) (A) (A) (A) (A) (A) (A) (A) (A) (A) (A)
                 (A) (A) (A) (A) (A) (A) (A) (A) (A) (A) (A) (A)
                 (A) (A) (A) (A) (A) (A) (A) (A) (A) (A) (A) (A)
                 (A) (A) (A) (A) (A) (A) (A) (A) (A) (A) (A) (A)
                 (A) (A) (A) (A) (A) (A) (A) (A) (A) (A) (A) (A)
                 (A) (A) (A) (A) (A) (A) (A) (A) (A) (A) (A) (A)
                 (A) (A) (A) (A) (A) (A) (A) (A) (A) (A) (A) (A)
                 (A) (A) (A) (A) (A) (A) (A) (A) (A) (A) (A) (A)
                 (A) (A) (A) (A)
       Virtual   (A) (A) (A) (A) (A) (A) (A) (A) (A) (A) (A) (A)
                 (A) (A) (A) (A) (A) (A) (A) (A) (A) (A) (A) (A)
                 (A) (A) (A) (A) (A) (A) (A) (A) (A) (A) (A) (A)
                 (A) (A) (A) (A) (A) (A) (A) (A) (A) (A) (A) (A)
                 (A) (A) (A) (A) (A) (A) (A) (A) (A) (A) (A) (A)
                 (A) (A) (A) (A) (A) (A) (A) (A) (A) (A) (A) (A)
                 (A) (A) (A) (A) (A) (A) (A) (A) (A) (A) (A) (A)
                 (A) (A) (A) (A) (A) (A) (A) (A) (A) (A) (A) (A)
                 (A) (A) (A) (A) (A) (A) (A) (A) (A) (A) (A) (A)
                 (A) (A)
 The electronic state is 1-A.
 Alpha  occ. eigenvalues -- -482.74977-482.74960-482.74617-482.71318-101.44892
 Alpha  occ. eigenvalues --  -62.43534 -62.43192 -62.43139 -62.39527 -56.26677
 Alpha  occ. eigenvalues --  -56.26375 -56.26373 -56.26337 -56.26334 -56.26036
 Alpha  occ. eigenvalues --  -56.26032 -56.26029 -56.26019 -56.22659 -56.22453
 Alpha  occ. eigenvalues --  -56.22437 -19.12030 -19.11844 -14.46118  -9.40324
 Alpha  occ. eigenvalues --   -8.65840  -8.65512  -8.64925  -8.61327  -7.17144
 Alpha  occ. eigenvalues --   -7.16264  -7.16253  -6.49314  -6.49003  -6.48146
 Alpha  occ. eigenvalues --   -6.47844  -6.47835  -6.47534  -6.47473  -6.47047
 Alpha  occ. eigenvalues --   -6.47036  -6.44363  -6.43569  -6.43519  -4.02911
 Alpha  occ. eigenvalues --   -2.60892  -2.60578  -2.60338  -2.60330  -2.60040
 Alpha  occ. eigenvalues --   -2.59991  -2.59595  -2.59288  -2.59279  -2.59172
 Alpha  occ. eigenvalues --   -2.59171  -2.58834  -2.58831  -2.58415  -2.58415
 Alpha  occ. eigenvalues --   -2.55860  -2.55639  -2.55601  -2.54977  -2.54974
 Alpha  occ. eigenvalues --   -2.25856  -2.25376  -2.23938  -1.06951  -0.90997
 Alpha  occ. eigenvalues --   -0.81132  -0.77003  -0.76206  -0.72927  -0.69909
 Alpha  occ. eigenvalues --   -0.62927  -0.49060  -0.48119  -0.46472  -0.44532
 Alpha  occ. eigenvalues --   -0.44337  -0.42875  -0.42321  -0.40304  -0.38202
 Alpha  occ. eigenvalues --   -0.32115  -0.31474  -0.28172  -0.26244  -0.26180
 Alpha  occ. eigenvalues --   -0.25434  -0.25121  -0.24756  -0.24649  -0.23920
 Alpha  occ. eigenvalues --   -0.22811  -0.22753  -0.22204  -0.20975  -0.19302
 Alpha virt. eigenvalues --   -0.09826  -0.06981  -0.00086   0.05543   0.05775
 Alpha virt. eigenvalues --    0.06423   0.17311   0.20297   0.21676   0.24848
 Alpha virt. eigenvalues --    0.25934   0.29641   0.34323   0.36037   0.37744
 Alpha virt. eigenvalues --    0.40016   0.40595   0.42425   0.45249   0.50491
 Alpha virt. eigenvalues --    0.51400   0.51710   0.52253   0.54011   0.54808
 Alpha virt. eigenvalues --    0.55818   0.56425   0.56586   0.57096   0.58311
 Alpha virt. eigenvalues --    0.58786   0.59429   0.60246   0.61013   0.62927
 Alpha virt. eigenvalues --    0.63995   0.64874   0.65365   0.65792   0.66589
 Alpha virt. eigenvalues --    0.71615   0.71896   0.74572   0.76507   0.77079
 Alpha virt. eigenvalues --    0.79525   0.82242   0.84306   0.86029   0.87543
 Alpha virt. eigenvalues --    0.93231   0.94008   0.96460   0.96586   0.97835
 Alpha virt. eigenvalues --    1.00304   1.02468   1.03869   1.05820   1.07054
 Alpha virt. eigenvalues --    1.09804   1.12013   1.15450   1.17945   1.19836
 Alpha virt. eigenvalues --    1.20150   1.22086   1.23750   1.25434   1.30396
 Alpha virt. eigenvalues --    1.37785   1.44150   1.49761   1.50574   1.98408
 Alpha virt. eigenvalues --    2.01104   2.09144   2.33290   2.36156   2.67982
 Alpha virt. eigenvalues --    2.68730   2.69705   2.70953   2.77747   3.00224
 Alpha virt. eigenvalues --    3.03478   3.24182   3.38478   3.41258   3.43561
 Alpha virt. eigenvalues --    3.43948   3.45316   3.46820   3.48139   3.48835
 Alpha virt. eigenvalues --    3.51574   3.55077   3.55675   3.57686   3.61124
 Alpha virt. eigenvalues --    3.66334   3.69387   3.70102   3.70593   3.73142
 Alpha virt. eigenvalues --    3.77329   3.78311   3.84415   3.89655   9.59452
          Condensed to atoms (all electrons):
               1          2          3          4          5          6
     1  Pt  18.233170   0.234222  -0.425637   0.243484  -0.536026   0.274144
     2  Br   0.234222  35.026379  -0.062123  -0.031121  -0.080881  -0.003233
     3  Br  -0.425637  -0.062123  36.229946  -0.043568  -0.180968  -0.058656
     4  Br   0.243484  -0.031121  -0.043568  35.114693  -0.020545  -0.024557
     5  Br  -0.536026  -0.080881  -0.180968  -0.020545  36.456244  -0.066408
     6  Cl   0.274144  -0.003233  -0.058656  -0.024557  -0.066408  17.045389
     7  N    0.082096  -0.021538  -0.020430  -0.002599  -0.068090  -0.015710
     8  O   -0.012655   0.000561   0.000550  -0.034822   0.002809  -0.000030
     9  O   -0.023227   0.000563   0.000654   0.000492  -0.016033  -0.005464
               7          8          9
     1  Pt   0.082096  -0.012655  -0.023227
     2  Br  -0.021538   0.000561   0.000563
     3  Br  -0.020430   0.000550   0.000654
     4  Br  -0.002599  -0.034822   0.000492
     5  Br  -0.068090   0.002809  -0.016033
     6  Cl  -0.015710  -0.000030  -0.005464
     7  N    6.657134   0.179882   0.185659
     8  O    0.179882   8.259393  -0.094323
     9  O    0.185659  -0.094323   8.264713
 Mulliken charges:
               1
     1  Pt  -0.069571
     2  Br  -0.062828
     3  Br  -0.439768
     4  Br  -0.201457
     5  Br  -0.490100
     6  Cl  -0.145475
     7  N    0.023596
     8  O   -0.301365
     9  O   -0.313033
 Sum of Mulliken charges =  -2.00000
 Mulliken charges with hydrogens summed into heavy atoms:
               1
     1  Pt  -0.069571
     2  Br  -0.062828
     3  Br  -0.439768
     4  Br  -0.201457
     5  Br  -0.490100
     6  Cl  -0.145475
     7  N    0.023596
     8  O   -0.301365
     9  O   -0.313033
 Electronic spatial extent (au):  <R**2>=           3628.5176
 Charge=             -2.0000 electrons
 Dipole moment (field-independent basis, Debye):
    X=              2.6897    Y=              4.5015    Z=              2.3921  Tot=              5.7637
 Quadrupole moment (field-independent basis, Debye-Ang):
   XX=           -156.8851   YY=           -157.1494   ZZ=           -151.3585
   XY=             -0.2940   XZ=             -1.3566   YZ=             -5.8196
 Traceless Quadrupole moment (field-independent basis, Debye-Ang):
   XX=             -1.7541   YY=             -2.0184   ZZ=              3.7725
   XY=             -0.2940   XZ=             -1.3566   YZ=             -5.8196
 Octapole moment (field-independent basis, Debye-Ang**2):
  XXX=             29.5835  YYY=             62.0340  ZZZ=             25.8792  XYY=              0.8745
  XXY=             19.2202  XXZ=             10.3967  XZZ=              7.4868  YZZ=             31.9443
  YYZ=             22.4436  XYZ=              1.5739
 Hexadecapole moment (field-independent basis, Debye-Ang**3):
 XXXX=          -1466.2414 YYYY=          -1421.9717 ZZZZ=          -1143.2635 XXXY=             -6.7333
 XXXZ=            -10.5247 YYYX=              3.0802 YYYZ=            -41.8764 ZZZX=            -17.6032
 ZZZY=            -42.1561 XXYY=           -476.4116 XXZZ=           -442.3179 YYZZ=           -457.7586
 XXYZ=            -15.5749 YYXZ=             -0.7464 ZZXY=             -5.0991
 N-N= 2.925493310353D+03 E-N=-3.234875537162D+04  KE= 1.098630313683D+04
   1 Symmetry operations used in ECPInt.
 ECPInt:  NShTT=    3403 NPrTT=   18378 LenC2=    3120 LenP2D=   11513.
 LDataN:  DoStor=T MaxTD1= 7 Len=  274
 D1PCM: PCM CHGder 1st derivatives, ID1Alg=3 FixD1E=F DoIter=F DoCFld=F I1PDM=0.
 Calling FoFJK, ICntrl=      2127 FMM=F ISym2X=0 I1Cent= 0 IOpClX= 0 NMat=1 NMatS=1 NMatT=0.
 Defaulting to unpruned grid for atomic number  78.
 Defaulting to unpruned grid for atomic number  78.
 Defaulting to unpruned grid for atomic number  78.
 Defaulting to unpruned grid for atomic number  78.
 Defaulting to unpruned grid for atomic number  78.
 Defaulting to unpruned grid for atomic number  78.
 Defaulting to unpruned grid for atomic number  78.
 Defaulting to unpruned grid for atomic number  78.
 ***** Axes restored to original set *****
 -------------------------------------------------------------------
 Center     Atomic                   Forces (Hartrees/Bohr)
 Number     Number              X              Y              Z
 -------------------------------------------------------------------
      1       78          -0.258482221    0.285039335   -0.037681973
      2       35          -0.004966647    0.003904417   -0.045051577
      3       35           0.370964047    0.012002910    0.005806237
      4       35           0.010064160    0.065826485   -0.001361317
      5       35          -0.004170728   -0.377763992   -0.003798078
      6       17          -0.002393561    0.004873310    0.056935751
      7        7          -0.132236629    0.051433946    0.157967906
      8        8           0.008509905   -0.088298452   -0.050122544
      9        8           0.012711674    0.042982041   -0.082694405
 -------------------------------------------------------------------
 Cartesian Forces:  Max     0.377763992 RMS     0.136639767

 GradGradGradGradGradGradGradGradGradGradGradGradGradGradGradGradGradGrad
 Berny optimization.
 FormGI is forming the generalized inverse of G from B-inverse, IUseBI=4.
 Internal  Forces:  Max     0.377765316 RMS     0.094224579
 Search for a local minimum.
 Step number   1 out of a maximum of   47
 All quantities printed in internal units (Hartrees-Bohrs-Radians)
 Mixed Optimization -- RFO/linear search
 Second derivative matrix not updated -- first step.
 ITU=  0
     Eigenvalues ---    0.00230   0.04734   0.08487   0.09416   0.12615
     Eigenvalues ---    0.12615   0.12615   0.14009   0.16743   0.19509
     Eigenvalues ---    0.19509   0.20378   0.22001   0.25000   0.25000
     Eigenvalues ---    0.25000   0.25000   0.52948   0.52948   0.90956
     Eigenvalues ---    0.90956
 RFO step:  Lambda=-3.12594461D-01 EMin= 2.30000000D-03
 Linear search not attempted -- first point.
 Maximum step size (   0.300) exceeded in Quadratic search.
    -- Step size scaled by   0.532
 Iteration  1 RMS(Cart)=  0.06767567 RMS(Int)=  0.00126825
 Iteration  2 RMS(Cart)=  0.00146458 RMS(Int)=  0.00064414
 Iteration  3 RMS(Cart)=  0.00000349 RMS(Int)=  0.00064413
 Iteration  4 RMS(Cart)=  0.00000001 RMS(Int)=  0.00064413
 Variable       Old X    -DE/DX   Delta X   Delta X   Delta X     New X
                                 (Linear)    (Quad)   (Total)
    R1        4.59203   0.04507   0.00000   0.04720   0.04720   4.63924
    R2        3.76056   0.37096   0.00000   0.16140   0.16140   3.92195
    R3        4.59203   0.06583   0.00000   0.06894   0.06894   4.66098
    R4        3.76056   0.37777   0.00000   0.16436   0.16436   3.92491
    R5        4.30858   0.05692   0.00000   0.05683   0.05683   4.36540
    R6        3.76056   0.11099   0.00000   0.11429   0.11429   3.87485
    R7        2.57003  -0.09481   0.00000  -0.05987  -0.05987   2.51016
    R8        2.57003  -0.08866   0.00000  -0.05598  -0.05598   2.51404
    A1        1.57080   0.01117   0.00000   0.01267   0.01267   1.58347
    A2        1.57080  -0.00404   0.00000  -0.00556  -0.00551   1.56529
    A3        1.57080   0.00061   0.00000   0.00108   0.00104   1.57184
    A4        1.57080  -0.00363   0.00000  -0.00353  -0.00355   1.56724
    A5        1.57080  -0.02284   0.00000  -0.02340  -0.02337   1.54742
    A6        1.57080   0.01521   0.00000   0.01444   0.01445   1.58525
    A7        1.57080  -0.00288   0.00000  -0.00262  -0.00264   1.56816
    A8        1.57080  -0.00245   0.00000  -0.00312  -0.00303   1.56777
    A9        1.57080   0.01579   0.00000   0.01486   0.01487   1.58567
   A10        1.57080   0.00588   0.00000   0.00761   0.00758   1.57838
   A11        1.57080  -0.00816   0.00000  -0.00590  -0.00591   1.56489
   A12        1.57080  -0.00466   0.00000  -0.00652  -0.00656   1.56424
   A13        1.91063   0.05534   0.00000   0.05792   0.05632   1.96695
   A14        1.91063   0.03829   0.00000   0.04180   0.04018   1.95081
   A15        1.91063  -0.01516   0.00000  -0.00310  -0.00590   1.90473
   A16        3.14159   0.00830   0.00000   0.01005   0.01003   3.15163
   A17        3.14159   0.00754   0.00000   0.00914   0.00912   3.15071
   A18        3.14159  -0.00343   0.00000  -0.00449  -0.00446   3.13713
   A19        3.14159  -0.00649   0.00000  -0.00868  -0.00877   3.13282
   A20        3.14159   0.00705   0.00000   0.00854   0.00855   3.15015
   A21        3.14159  -0.00763   0.00000  -0.00896  -0.00898   3.13261
    D1       -1.80679   0.02286   0.00000   0.03363   0.03416  -1.77264
    D2        2.38200  -0.01591   0.00000  -0.02364  -0.02418   2.35782
    D3       -0.23600   0.01882   0.00000   0.02806   0.02860  -0.20740
    D4       -2.33039  -0.01995   0.00000  -0.02921  -0.02974  -2.36013
    D5        2.90559   0.02225   0.00000   0.03255   0.03309   2.93869
    D6        0.81120  -0.01652   0.00000  -0.02472  -0.02524   0.78596
    D7        1.33480   0.01637   0.00000   0.02495   0.02547   1.36027
    D8       -0.75960  -0.02240   0.00000  -0.03233  -0.03287  -0.79246
         Item               Value     Threshold  Converged?
 Maximum Force            0.377765     0.000450     NO 
 RMS     Force            0.094225     0.000300     NO 
 Maximum Displacement     0.199375     0.001800     NO 
 RMS     Displacement     0.066992     0.001200     NO 
 Predicted change in Energy=-1.371344D-01
 GradGradGradGradGradGradGradGradGradGradGradGradGradGradGradGradGradGrad

                          Input orientation:                          
 ---------------------------------------------------------------------
 Center     Atomic      Atomic             Coordinates (Angstroms)
 Number     Number       Type             X           Y           Z
 ---------------------------------------------------------------------
      1         78           0       -0.299387    0.343385    0.003420
      2         35           0       -0.338452    0.352971   -2.451228
      3         35           0        1.775956    0.358305   -0.003246
      4         35           0       -0.259487    2.809541   -0.001170
      5         35           0       -0.314485   -1.733526   -0.002282
      6         17           0       -0.285954    0.354465    2.313427
      7          7           0       -2.349710    0.346111    0.028775
      8          8           0       -2.857545    1.546390    0.285421
      9          8           0       -2.833541   -0.528824    0.906438
 ---------------------------------------------------------------------
                    Distance matrix (angstroms):
                    1          2          3          4          5
     1  Pt   0.000000
     2  Br   2.454978   0.000000
     3  Br   2.075408   3.234712   0.000000
     4  Br   2.466483   3.470412   3.186156   0.000000
     5  Br   2.076974   3.217356   2.957313   4.543401   0.000000
     6  Cl   2.310072   4.764944   3.101364   3.374235   3.118177
     7  N    2.050482   3.193059   4.125809   3.230855   2.909983
     8  O    2.840936   3.906320   4.792098   2.903032   4.160262
     9  O    2.828096   4.275156   4.781421   4.312098   2.936447
                    6          7          8          9
     6  Cl   0.000000
     7  N    3.078765   0.000000
     8  O    3.485194   1.328319   0.000000
     9  O    3.041384   1.330375   2.166276   0.000000
 Stoichiometry    Br4ClNO2Pt(2-)
 Framework group  C1[X(Br4ClNO2Pt)]
 Deg. of freedom    21
 Full point group                 C1      NOp   1
 Largest Abelian subgroup         C1      NOp   1
 Largest concise Abelian subgroup C1      NOp   1
                         Standard orientation:                         
 ---------------------------------------------------------------------
 Center     Atomic      Atomic             Coordinates (Angstroms)
 Number     Number       Type             X           Y           Z
 ---------------------------------------------------------------------
      1         78           0        0.067492   -0.159512    0.014612
      2         35           0        0.025128    1.934210   -1.266577
      3         35           0        0.101011    0.901583    1.797944
      4         35           0       -2.396909   -0.133519    0.112550
      5         35           0        2.143233   -0.163754   -0.056803
      6         17           0        0.086721   -2.141710    1.200764
      7          7           0        0.017161   -1.223964   -1.737211
      8          8           0       -1.191229   -1.702340   -2.011769
      9          8           0        0.891866   -2.226335   -1.730890
 ---------------------------------------------------------------------
 Rotational constants (GHZ):      0.4002097      0.3508599      0.3305110
 Basis read from rwf:  (5D, 7F)
 Pseudo-potential data read from rwf file.
 There are   228 symmetry adapted cartesian basis functions of A   symmetry.
 There are   210 symmetry adapted basis functions of A   symmetry.
   210 basis functions,   475 primitive gaussians,   228 cartesian basis functions
   100 alpha electrons      100 beta electrons
       nuclear repulsion energy      2852.0562555956 Hartrees.
 NAtoms=    9 NActive=    9 NUniq=    9 SFac= 1.00D+00 NAtFMM=   60 NAOKFM=F Big=F
 Integral buffers will be    131072 words long.
 Raffenetti 2 integral format.
 Two-electron integral symmetry is turned on.
 ------------------------------------------------------------------------------
 Polarizable Continuum Model (PCM)
 =================================
 Model                : PCM (using non-symmetric T matrix).
 Atomic radii         : UFF (Universal Force Field).
 Polarization charges : Total charges.
 Charge compensation  : None.
 Solution method      : On-the-fly selection.
 Cavity type          : Scaled VdW (van der Waals Surface) (Alpha=1.100).
 Cavity algorithm     : GePol (No added spheres)
                        Default sphere list used, NSphG=    9.
                        Lebedev-Laikov grids with approx.  5.0 points / Ang**2.
                        Smoothing algorithm: Karplus/York (Gamma=1.0000).
                        Polarization charges: spherical gaussians, with
                                              point-specific exponents (IZeta= 3).
                        Self-potential: point-specific (ISelfS= 7).
                        Self-field    : sphere-specific E.n sum rule (ISelfD= 2).
 1st derivatives      : Analytical E(r).r(x)/FMM algorithm (CHGder, D1EAlg=3).
                        Cavity 1st derivative terms included.
 Solvent              : Water, Eps=  78.355300 Eps(inf)=   1.777849
 ------------------------------------------------------------------------------
 Spheres list:
 ISph  on   Nord     Re0    Alpha      Xe            Ye            Ze
    1  Pt      1    1.3770  1.100      0.067492     -0.159512      0.014612
    2  Br      2    2.0945  1.100      0.025128      1.934210     -1.266577
    3  Br      3    2.0945  1.100      0.101011      0.901583      1.797944
    4  Br      4    2.0945  1.100     -2.396909     -0.133519      0.112550
    5  Br      5    2.0945  1.100      2.143233     -0.163754     -0.056803
    6  Cl      6    1.9735  1.100      0.086721     -2.141710      1.200764
    7   N      7    1.8300  1.100      0.017161     -1.223964     -1.737211
    8   O      8    1.7500  1.100     -1.191229     -1.702340     -2.011769
    9   O      9    1.7500  1.100      0.891866     -2.226335     -1.730890
 ------------------------------------------------------------------------------
 One-electron integrals computed using PRISM.
   1 Symmetry operations used in ECPInt.
 ECPInt:  NShTT=    3403 NPrTT=   18378 LenC2=    3104 LenP2D=   11409.
 LDataN:  DoStor=T MaxTD1= 6 Len=  172
 NBasis=   210 RedAO= T EigKep=  2.31D-03  NBF=   210
 NBsUse=   210 1.00D-06 EigRej= -1.00D+00 NBFU=   210
 Defaulting to unpruned grid for atomic number  78.
 Initial guess from the checkpoint file:  "/home/scr/diego/Gau-21009.chk"
 B after Tr=     0.000000    0.000000    0.000000
         Rot=    0.998038    0.054279    0.018834   -0.024884 Ang=   7.18 deg.
 ExpMin= 2.90D-02 ExpMax= 1.13D+05 ExpMxC= 1.70D+04 IAcc=3 IRadAn=         5 AccDes= 0.00D+00
 Harris functional with IExCor=  402 and IRadAn=       5 diagonalized for initial guess.
 HarFok:  IExCor=  402 AccDes= 0.00D+00 IRadAn=         5 IDoV= 1 UseB2=F ITyADJ=14
 ICtDFT=  3500011 ScaDFX=  1.000000  1.000000  1.000000  1.000000
 Defaulting to unpruned grid for atomic number  78.
 Defaulting to unpruned grid for atomic number  78.
 Defaulting to unpruned grid for atomic number  78.
 Defaulting to unpruned grid for atomic number  78.
 Defaulting to unpruned grid for atomic number  78.
 Defaulting to unpruned grid for atomic number  78.
 Defaulting to unpruned grid for atomic number  78.
 Defaulting to unpruned grid for atomic number  78.
 FoFCou: FMM=F IPFlag=           0 FMFlag=      100000 FMFlg1=           0
         NFxFlg=           0 DoJE=T BraDBF=F KetDBF=T FulRan=T
         wScrn=  0.000000 ICntrl=     500 IOpCl=  0 I1Cent=   200000004 NGrid=           0
         NMat0=    1 NMatS0=      1 NMatT0=    0 NMatD0=    1 NMtDS0=    0 NMtDT0=    0
 Petite list used in FoFCou.
 Keep R1 ints in memory in canonical form, NReq=251615474.
 Requested convergence on RMS density matrix=1.00D-08 within 128 cycles.
 Requested convergence on MAX density matrix=1.00D-06.
 Requested convergence on             energy=1.00D-06.
 No special actions if energy rises.
 Defaulting to unpruned grid for atomic number  78.
 Defaulting to unpruned grid for atomic number  78.
 Defaulting to unpruned grid for atomic number  78.
 Defaulting to unpruned grid for atomic number  78.
 Defaulting to unpruned grid for atomic number  78.
 Defaulting to unpruned grid for atomic number  78.
 Defaulting to unpruned grid for atomic number  78.
 Defaulting to unpruned grid for atomic number  78.
 Inv3:  Mode=1 IEnd=     7013523.
 Iteration    1 A*A^-1 deviation from unit magnitude is 6.22D-15 for    441.
 Iteration    1 A*A^-1 deviation from orthogonality  is 4.24D-15 for   1408    979.
 Iteration    1 A^-1*A deviation from unit magnitude is 6.11D-15 for   1075.
 Iteration    1 A^-1*A deviation from orthogonality  is 5.72D-15 for    886    794.
 Error on total polarization charges =  0.01741
 SCF Done:  E(RB3LYP) =  -11079.9172578     A.U. after   15 cycles
            NFock= 15  Conv=0.22D-08     -V/T= 2.0086
   1 Symmetry operations used in ECPInt.
 ECPInt:  NShTT=    3403 NPrTT=   18378 LenC2=    3104 LenP2D=   11409.
 LDataN:  DoStor=T MaxTD1= 7 Len=  274
 D1PCM: PCM CHGder 1st derivatives, ID1Alg=3 FixD1E=F DoIter=F DoCFld=F I1PDM=0.
 Calling FoFJK, ICntrl=      2127 FMM=F ISym2X=0 I1Cent= 0 IOpClX= 0 NMat=1 NMatS=1 NMatT=0.
 Defaulting to unpruned grid for atomic number  78.
 Defaulting to unpruned grid for atomic number  78.
 Defaulting to unpruned grid for atomic number  78.
 Defaulting to unpruned grid for atomic number  78.
 Defaulting to unpruned grid for atomic number  78.
 Defaulting to unpruned grid for atomic number  78.
 Defaulting to unpruned grid for atomic number  78.
 Defaulting to unpruned grid for atomic number  78.
 ***** Axes restored to original set *****
 -------------------------------------------------------------------
 Center     Atomic                   Forces (Hartrees/Bohr)
 Number     Number              X              Y              Z
 -------------------------------------------------------------------
      1       78          -0.174474855    0.188275943   -0.029162099
      2       35          -0.003542117    0.002554981   -0.033000500
      3       35           0.246065010    0.005723499    0.002752139
      4       35           0.004186649    0.046002771   -0.001042633
      5       35          -0.002895670   -0.251070843   -0.002653134
      6       17          -0.001402726    0.003025512    0.041434203
      7        7          -0.110202056    0.045286475    0.146892258
      8        8           0.020934722   -0.066693419   -0.050378224
      9        8           0.021331043    0.026895080   -0.074842011
 -------------------------------------------------------------------
 Cartesian Forces:  Max     0.251070843 RMS     0.095321592

 GradGradGradGradGradGradGradGradGradGradGradGradGradGradGradGradGradGrad
 Berny optimization.
 Using GEDIIS/GDIIS optimizer.
 FormGI is forming the generalized inverse of G from B-inverse, IUseBI=4.
 Internal  Forces:  Max     0.251104538 RMS     0.063499537
 Search for a local minimum.
 Step number   2 out of a maximum of   47
 All quantities printed in internal units (Hartrees-Bohrs-Radians)
 Mixed Optimization -- RFO/linear search
 Update second derivatives using D2CorX and points    1    2
 DE= -1.38D-01 DEPred=-1.37D-01 R= 1.01D+00
 TightC=F SS=  1.41D+00  RLast= 3.11D-01 DXNew= 5.0454D-01 9.3221D-01
 Trust test= 1.01D+00 RLast= 3.11D-01 DXMaxT set to 5.05D-01
 ITU=  1  0
 Use linear search instead of GDIIS.
 Linear search step of   0.599 exceeds DXMaxT=   0.505 but not scaled.
 Quartic linear search produced a step of  2.00000.
 Iteration  1 RMS(Cart)=  0.11048668 RMS(Int)=  0.03051571
 Iteration  2 RMS(Cart)=  0.02903727 RMS(Int)=  0.00347601
 Iteration  3 RMS(Cart)=  0.00006027 RMS(Int)=  0.00347569
 Iteration  4 RMS(Cart)=  0.00000059 RMS(Int)=  0.00347569
 Variable       Old X    -DE/DX   Delta X   Delta X   Delta X     New X
                                 (Linear)    (Quad)   (Total)
    R1        4.63924   0.03304   0.09440   0.00000   0.09440   4.73364
    R2        3.92195   0.24609   0.32279   0.00000   0.32279   4.24475
    R3        4.66098   0.04605   0.13789   0.00000   0.13789   4.79886
    R4        3.92491   0.25110   0.32872   0.00000   0.32872   4.25363
    R5        4.36540   0.04146   0.11366   0.00000   0.11366   4.47906
    R6        3.87485   0.06824   0.22859   0.00000   0.22859   4.10344
    R7        2.51016  -0.07798  -0.11974   0.00000  -0.11974   2.39042
    R8        2.51404  -0.07489  -0.11197   0.00000  -0.11197   2.40208
    A1        1.58347   0.00696   0.02535   0.00000   0.02533   1.60880
    A2        1.56529  -0.00254  -0.01101   0.00000  -0.01066   1.55463
    A3        1.57184   0.00060   0.00209   0.00000   0.00189   1.57373
    A4        1.56724  -0.00131  -0.00710   0.00000  -0.00721   1.56004
    A5        1.54742  -0.00790  -0.04675   0.00000  -0.04656   1.50086
    A6        1.58525   0.00492   0.02890   0.00000   0.02896   1.61421
    A7        1.56816  -0.00169  -0.00528   0.00000  -0.00540   1.56276
    A8        1.56777  -0.00127  -0.00606   0.00000  -0.00552   1.56225
    A9        1.58567   0.00549   0.02974   0.00000   0.02980   1.61546
   A10        1.57838   0.00329   0.01517   0.00000   0.01503   1.59341
   A11        1.56489  -0.00246  -0.01181   0.00000  -0.01186   1.55304
   A12        1.56424  -0.00402  -0.01311   0.00000  -0.01333   1.55091
   A13        1.96695   0.02546   0.11264   0.00000   0.10274   2.06969
   A14        1.95081   0.01779   0.08036   0.00000   0.07020   2.02101
   A15        1.90473   0.00446  -0.01180   0.00000  -0.02609   1.87865
   A16        3.15163   0.00527   0.02007   0.00000   0.01994   3.17156
   A17        3.15071   0.00565   0.01824   0.00000   0.01813   3.16884
   A18        3.13713  -0.00194  -0.00893   0.00000  -0.00876   3.12837
   A19        3.13282  -0.00402  -0.01755   0.00000  -0.01811   3.11471
   A20        3.15015   0.00247   0.01711   0.00000   0.01721   3.16735
   A21        3.13261  -0.00304  -0.01796   0.00000  -0.01807   3.11454
    D1       -1.77264   0.02150   0.06832   0.00000   0.07057  -1.70207
    D2        2.35782  -0.01715  -0.04836   0.00000  -0.05063   2.30719
    D3       -0.20740   0.01892   0.05720   0.00000   0.05947  -0.14794
    D4       -2.36013  -0.01973  -0.05948   0.00000  -0.06173  -2.42186
    D5        2.93869   0.02089   0.06619   0.00000   0.06850   3.00719
    D6        0.78596  -0.01777  -0.05049   0.00000  -0.05269   0.73326
    D7        1.36027   0.01755   0.05094   0.00000   0.05315   1.41342
    D8       -0.79246  -0.02110  -0.06573   0.00000  -0.06804  -0.86051
         Item               Value     Threshold  Converged?
 Maximum Force            0.251105     0.000450     NO 
 RMS     Force            0.063500     0.000300     NO 
 Maximum Displacement     0.390493     0.001800     NO 
 RMS     Displacement     0.129278     0.001200     NO 
 Predicted change in Energy=-1.164080D-01
 GradGradGradGradGradGradGradGradGradGradGradGradGradGradGradGradGradGrad

                          Input orientation:                          
 ---------------------------------------------------------------------
 Center     Atomic      Atomic             Coordinates (Angstroms)
 Number     Number       Type             X           Y           Z
 ---------------------------------------------------------------------
      1         78           0       -0.263030    0.353432    0.009049
      2         35           0       -0.376034    0.383130   -2.493158
      3         35           0        1.982596    0.402868   -0.006336
      4         35           0       -0.141487    2.889918   -0.007424
      5         35           0       -0.311323   -1.896901   -0.008857
      6         17           0       -0.228493    0.387445    2.378770
      7          7           0       -2.433177    0.360835    0.083753
      8          8           0       -3.028845    1.462314    0.262756
      9          8           0       -2.962812   -0.494225    0.861002
 ---------------------------------------------------------------------
                    Distance matrix (angstroms):
                    1          2          3          4          5
     1  Pt   0.000000
     2  Br   2.504933   0.000000
     3  Br   2.246223   3.427507   0.000000
     4  Br   2.539450   3.538060   3.270649   0.000000
     5  Br   2.250923   3.372608   3.248232   4.789831   0.000000
     6  Cl   2.370216   4.874163   3.252365   3.458881   3.305429
     7  N    2.171445   3.297394   4.416892   3.414150   3.099712
     8  O    2.990604   3.974556   5.129266   3.232319   4.329321
     9  O    2.955193   4.325686   5.100403   4.490708   3.123227
                    6          7          8          9
     6  Cl   0.000000
     7  N    3.182521   0.000000
     8  O    3.670807   1.264957   0.000000
     9  O    3.249224   1.271124   2.047023   0.000000
 Stoichiometry    Br4ClNO2Pt(2-)
 Framework group  C1[X(Br4ClNO2Pt)]
 Deg. of freedom    21
 Full point group                 C1      NOp   1
 Largest Abelian subgroup         C1      NOp   1
 Largest concise Abelian subgroup C1      NOp   1
                         Standard orientation:                         
 ---------------------------------------------------------------------
 Center     Atomic      Atomic             Coordinates (Angstroms)
 Number     Number       Type             X           Y           Z
 ---------------------------------------------------------------------
      1         78           0        0.074606   -0.133484    0.096008
      2         35           0       -0.036069    1.053496   -2.107063
      3         35           0       -0.256332    1.772953    1.236838
      4         35           0       -2.455891   -0.343963    0.063062
      5         35           0        2.310928    0.120475    0.128011
      6         17           0        0.126900   -1.326988    2.143137
      7          7           0        0.342001   -2.013615   -0.956978
      8          8           0       -0.668540   -2.750768   -1.145472
      9          8           0        1.285683   -2.753955   -0.536125
 ---------------------------------------------------------------------
 Rotational constants (GHZ):      0.3653575      0.3133358      0.3063308
 Basis read from rwf:  (5D, 7F)
 Pseudo-potential data read from rwf file.
 There are   228 symmetry adapted cartesian basis functions of A   symmetry.
 There are   210 symmetry adapted basis functions of A   symmetry.
   210 basis functions,   475 primitive gaussians,   228 cartesian basis functions
   100 alpha electrons      100 beta electrons
       nuclear repulsion energy      2719.8115194273 Hartrees.
 NAtoms=    9 NActive=    9 NUniq=    9 SFac= 1.00D+00 NAtFMM=   60 NAOKFM=F Big=F
 Integral buffers will be    131072 words long.
 Raffenetti 2 integral format.
 Two-electron integral symmetry is turned on.
 ------------------------------------------------------------------------------
 Polarizable Continuum Model (PCM)
 =================================
 Model                : PCM (using non-symmetric T matrix).
 Atomic radii         : UFF (Universal Force Field).
 Polarization charges : Total charges.
 Charge compensation  : None.
 Solution method      : On-the-fly selection.
 Cavity type          : Scaled VdW (van der Waals Surface) (Alpha=1.100).
 Cavity algorithm     : GePol (No added spheres)
                        Default sphere list used, NSphG=    9.
                        Lebedev-Laikov grids with approx.  5.0 points / Ang**2.
                        Smoothing algorithm: Karplus/York (Gamma=1.0000).
                        Polarization charges: spherical gaussians, with
                                              point-specific exponents (IZeta= 3).
                        Self-potential: point-specific (ISelfS= 7).
                        Self-field    : sphere-specific E.n sum rule (ISelfD= 2).
 1st derivatives      : Analytical E(r).r(x)/FMM algorithm (CHGder, D1EAlg=3).
                        Cavity 1st derivative terms included.
 Solvent              : Water, Eps=  78.355300 Eps(inf)=   1.777849
 ------------------------------------------------------------------------------
 Spheres list:
 ISph  on   Nord     Re0    Alpha      Xe            Ye            Ze
    1  Pt      1    1.3770  1.100      0.074606     -0.133484      0.096008
    2  Br      2    2.0945  1.100     -0.036069      1.053496     -2.107063
    3  Br      3    2.0945  1.100     -0.256332      1.772953      1.236838
    4  Br      4    2.0945  1.100     -2.455891     -0.343963      0.063062
    5  Br      5    2.0945  1.100      2.310928      0.120475      0.128011
    6  Cl      6    1.9735  1.100      0.126900     -1.326988      2.143137
    7   N      7    1.8300  1.100      0.342001     -2.013615     -0.956978
    8   O      8    1.7500  1.100     -0.668540     -2.750768     -1.145472
    9   O      9    1.7500  1.100      1.285683     -2.753955     -0.536125
 ------------------------------------------------------------------------------
 One-electron integrals computed using PRISM.
   1 Symmetry operations used in ECPInt.
 ECPInt:  NShTT=    3403 NPrTT=   18378 LenC2=    3068 LenP2D=   11178.
 LDataN:  DoStor=T MaxTD1= 6 Len=  172
 NBasis=   210 RedAO= T EigKep=  3.67D-03  NBF=   210
 NBsUse=   210 1.00D-06 EigRej= -1.00D+00 NBFU=   210
 Defaulting to unpruned grid for atomic number  78.
 Initial guess from the checkpoint file:  "/home/scr/diego/Gau-21009.chk"
 B after Tr=     0.000000    0.000000    0.000000
         Rot=    0.966115    0.247687    0.041325   -0.059711 Ang=  29.92 deg.
 ExpMin= 2.90D-02 ExpMax= 1.13D+05 ExpMxC= 1.70D+04 IAcc=3 IRadAn=         5 AccDes= 0.00D+00
 Harris functional with IExCor=  402 and IRadAn=       5 diagonalized for initial guess.
 HarFok:  IExCor=  402 AccDes= 0.00D+00 IRadAn=         5 IDoV= 1 UseB2=F ITyADJ=14
 ICtDFT=  3500011 ScaDFX=  1.000000  1.000000  1.000000  1.000000
 Defaulting to unpruned grid for atomic number  78.
 Defaulting to unpruned grid for atomic number  78.
 Defaulting to unpruned grid for atomic number  78.
 Defaulting to unpruned grid for atomic number  78.
 Defaulting to unpruned grid for atomic number  78.
 Defaulting to unpruned grid for atomic number  78.
 Defaulting to unpruned grid for atomic number  78.
 Defaulting to unpruned grid for atomic number  78.
 FoFCou: FMM=F IPFlag=           0 FMFlag=      100000 FMFlg1=           0
         NFxFlg=           0 DoJE=T BraDBF=F KetDBF=T FulRan=T
         wScrn=  0.000000 ICntrl=     500 IOpCl=  0 I1Cent=   200000004 NGrid=           0
         NMat0=    1 NMatS0=      1 NMatT0=    0 NMatD0=    1 NMtDS0=    0 NMtDT0=    0
 Petite list used in FoFCou.
 Keep R1 ints in memory in canonical form, NReq=251685734.
 Requested convergence on RMS density matrix=1.00D-08 within 128 cycles.
 Requested convergence on MAX density matrix=1.00D-06.
 Requested convergence on             energy=1.00D-06.
 No special actions if energy rises.
 Defaulting to unpruned grid for atomic number  78.
 Defaulting to unpruned grid for atomic number  78.
 Defaulting to unpruned grid for atomic number  78.
 Defaulting to unpruned grid for atomic number  78.
 Defaulting to unpruned grid for atomic number  78.
 Defaulting to unpruned grid for atomic number  78.
 Defaulting to unpruned grid for atomic number  78.
 Defaulting to unpruned grid for atomic number  78.
 Inv3:  Mode=1 IEnd=     7892652.
 Iteration    1 A*A^-1 deviation from unit magnitude is 6.22D-15 for   1586.
 Iteration    1 A*A^-1 deviation from orthogonality  is 3.44D-15 for   1521   1249.
 Iteration    1 A^-1*A deviation from unit magnitude is 7.66D-15 for    361.
 Iteration    1 A^-1*A deviation from orthogonality  is 3.92D-15 for    295    194.
 Error on total polarization charges =  0.01646
 SCF Done:  E(RB3LYP) =  -11080.0643308     A.U. after   15 cycles
            NFock= 15  Conv=0.49D-08     -V/T= 2.0087
   1 Symmetry operations used in ECPInt.
 ECPInt:  NShTT=    3403 NPrTT=   18378 LenC2=    3068 LenP2D=   11178.
 LDataN:  DoStor=T MaxTD1= 7 Len=  274
 D1PCM: PCM CHGder 1st derivatives, ID1Alg=3 FixD1E=F DoIter=F DoCFld=F I1PDM=0.
 Calling FoFJK, ICntrl=      2127 FMM=F ISym2X=0 I1Cent= 0 IOpClX= 0 NMat=1 NMatS=1 NMatT=0.
 Defaulting to unpruned grid for atomic number  78.
 Defaulting to unpruned grid for atomic number  78.
 Defaulting to unpruned grid for atomic number  78.
 Defaulting to unpruned grid for atomic number  78.
 Defaulting to unpruned grid for atomic number  78.
 Defaulting to unpruned grid for atomic number  78.
 Defaulting to unpruned grid for atomic number  78.
 Defaulting to unpruned grid for atomic number  78.
 ***** Axes restored to original set *****
 -------------------------------------------------------------------
 Center     Atomic                   Forces (Hartrees/Bohr)
 Number     Number              X              Y              Z
 -------------------------------------------------------------------
      1       78          -0.079859251    0.080914139   -0.016506632
      2       35          -0.001117038    0.000457812   -0.014014275
      3       35           0.099854934   -0.001741507   -0.000141861
      4       35          -0.002528237    0.017085944   -0.000085423
      5       35          -0.000762668   -0.100912135   -0.001046826
      6       17          -0.001307011    0.000244641    0.017158952
      7        7          -0.074348607    0.027354200    0.113271468
      8        8           0.029852941    0.002017743   -0.053696665
      9        8           0.030214936   -0.025420837   -0.044938738
 -------------------------------------------------------------------
 Cartesian Forces:  Max     0.113271468 RMS     0.047380295

 GradGradGradGradGradGradGradGradGradGradGradGradGradGradGradGradGradGrad
 Berny optimization.
 Using GEDIIS/GDIIS optimizer.
 FormGI is forming the generalized inverse of G from B-inverse, IUseBI=4.
 Internal  Forces:  Max     0.100902670 RMS     0.027922919
 Search for a local minimum.
 Step number   3 out of a maximum of   47
 All quantities printed in internal units (Hartrees-Bohrs-Radians)
 Mixed Optimization -- RFO/linear search
 Update second derivatives using D2CorX and points    2    3
 ITU=  0  1  0
 Use linear search instead of GDIIS.
 Linear search step of   0.673 exceeds DXMaxT=   0.505 but not scaled.
 Quartic linear search produced a step of  1.12777.
 Iteration  1 RMS(Cart)=  0.11023729 RMS(Int)=  0.04133906
 Iteration  2 RMS(Cart)=  0.04079245 RMS(Int)=  0.00448283
 Iteration  3 RMS(Cart)=  0.00007643 RMS(Int)=  0.00448245
 Iteration  4 RMS(Cart)=  0.00000053 RMS(Int)=  0.00448245
 Variable       Old X    -DE/DX   Delta X   Delta X   Delta X     New X
                                 (Linear)    (Quad)   (Total)
    R1        4.73364   0.01405   0.10646   0.00000   0.10646   4.84010
    R2        4.24475   0.09979   0.36404   0.00000   0.36404   4.60878
    R3        4.79886   0.01695   0.15550   0.00000   0.15550   4.95437
    R4        4.25363   0.10090   0.37071   0.00000   0.37071   4.62434
    R5        4.47906   0.01714   0.12818   0.00000   0.12818   4.60724
    R6        4.10344   0.01479   0.25779   0.00000   0.25779   4.36123
    R7        2.39042  -0.01992  -0.13503   0.00000  -0.13503   2.25539
    R8        2.40208  -0.02296  -0.12627   0.00000  -0.12627   2.27580
    A1        1.60880   0.00117   0.02857   0.00000   0.02854   1.63734
    A2        1.55463  -0.00036  -0.01202   0.00000  -0.01141   1.54323
    A3        1.57373   0.00014   0.00214   0.00000   0.00182   1.57555
    A4        1.56004   0.00119  -0.00813   0.00000  -0.00828   1.55175
    A5        1.50086   0.00818  -0.05251   0.00000  -0.05217   1.44869
    A6        1.61421  -0.00564   0.03266   0.00000   0.03275   1.64696
    A7        1.56276   0.00117  -0.00609   0.00000  -0.00630   1.55646
    A8        1.56225   0.00002  -0.00622   0.00000  -0.00531   1.55694
    A9        1.61546  -0.00549   0.03360   0.00000   0.03370   1.64916
   A10        1.59341   0.00019   0.01695   0.00000   0.01672   1.61013
   A11        1.55304   0.00299  -0.01337   0.00000  -0.01346   1.53958
   A12        1.55091  -0.00347  -0.01503   0.00000  -0.01536   1.53555
   A13        2.06969  -0.02297   0.11587   0.00000   0.10191   2.17160
   A14        2.02101  -0.02003   0.07917   0.00000   0.06483   2.08584
   A15        1.87865   0.05379  -0.02942   0.00000  -0.04683   1.83181
   A16        3.17156   0.00234   0.02248   0.00000   0.02224   3.19381
   A17        3.16884   0.00236   0.02044   0.00000   0.02025   3.18909
   A18        3.12837  -0.00023  -0.00988   0.00000  -0.00959   3.11878
   A19        3.11471  -0.00025  -0.02042   0.00000  -0.02134   3.09337
   A20        3.16735  -0.00264   0.01940   0.00000   0.01958   3.18693
   A21        3.11454   0.00251  -0.02038   0.00000  -0.02057   3.09397
    D1       -1.70207   0.01914   0.07958   0.00000   0.08172  -1.62035
    D2        2.30719  -0.01819  -0.05709   0.00000  -0.05926   2.24794
    D3       -0.14794   0.01889   0.06706   0.00000   0.06923  -0.07871
    D4       -2.42186  -0.01843  -0.06961   0.00000  -0.07175  -2.49361
    D5        3.00719   0.01906   0.07725   0.00000   0.07950   3.08669
    D6        0.73326  -0.01827  -0.05942   0.00000  -0.06148   0.67179
    D7        1.41342   0.01886   0.05994   0.00000   0.06199   1.47541
    D8       -0.86051  -0.01846  -0.07674   0.00000  -0.07899  -0.93949
         Item               Value     Threshold  Converged?
 Maximum Force            0.100903     0.000450     NO 
 RMS     Force            0.027923     0.000300     NO 
 Maximum Displacement     0.428910     0.001800     NO 
 RMS     Displacement     0.139676     0.001200     NO 
 Predicted change in Energy=-3.362476D-03
 GradGradGradGradGradGradGradGradGradGradGradGradGradGradGradGradGradGrad

                          Input orientation:                          
 ---------------------------------------------------------------------
 Center     Atomic      Atomic             Coordinates (Angstroms)
 Number     Number       Type             X           Y           Z
 ---------------------------------------------------------------------
      1         78           0       -0.227345    0.364352    0.013142
      2         35           0       -0.417760    0.418002   -2.540478
      3         35           0        2.209565    0.460444   -0.003890
      4         35           0       -0.011007    2.976932   -0.020588
      5         35           0       -0.317507   -2.080861   -0.019837
      6         17           0       -0.177761    0.425612    2.449912
      7          7           0       -2.531630    0.375503    0.141117
      8          8           0       -3.196700    1.360807    0.247425
      9          8           0       -3.092462   -0.451972    0.812753
 ---------------------------------------------------------------------
                    Distance matrix (angstroms):
                    1          2          3          4          5
     1  Pt   0.000000
     2  Br   2.561272   0.000000
     3  Br   2.438863   3.652248   0.000000
     4  Br   2.621739   3.614335   3.356178   0.000000
     5  Br   2.447097   3.550775   3.583933   5.067071   0.000000
     6  Cl   2.438045   4.996164   3.423694   3.555335   3.521590
     7  N    2.307863   3.414851   4.744172   3.625896   3.310887
     8  O    3.140842   4.047690   5.486485   3.582225   4.495138
     9  O    3.084585   4.376648   5.441590   4.684785   3.323682
                    6          7          8          9
     6  Cl   0.000000
     7  N    3.297537   0.000000
     8  O    3.852212   1.193500   0.000000
     9  O    3.456289   1.204303   1.901744   0.000000
 Stoichiometry    Br4ClNO2Pt(2-)
 Framework group  C1[X(Br4ClNO2Pt)]
 Deg. of freedom    21
 Full point group                 C1      NOp   1
 Largest Abelian subgroup         C1      NOp   1
 Largest concise Abelian subgroup C1      NOp   1
                         Standard orientation:                         
 ---------------------------------------------------------------------
 Center     Atomic      Atomic             Coordinates (Angstroms)
 Number     Number       Type             X           Y           Z
 ---------------------------------------------------------------------
      1         78           0        0.081749   -0.073402    0.153465
      2         35           0       -0.000707   -0.065616   -2.406467
      3         35           0       -0.777684    2.200510    0.350323
      4         35           0       -2.465398   -0.694282    0.161313
      5         35           0        2.428024    0.619024    0.091639
      6         17           0        0.095399   -0.241331    2.585681
      7          7           0        0.801669   -2.264862    0.079638
      8          8           0        0.080527   -3.214194    0.135905
      9          8           0        1.787209   -2.586464    0.692521
 ---------------------------------------------------------------------
 Rotational constants (GHZ):      0.3341153      0.2854805      0.2727914
 Basis read from rwf:  (5D, 7F)
 Pseudo-potential data read from rwf file.
 There are   228 symmetry adapted cartesian basis functions of A   symmetry.
 There are   210 symmetry adapted basis functions of A   symmetry.
   210 basis functions,   475 primitive gaussians,   228 cartesian basis functions
   100 alpha electrons      100 beta electrons
       nuclear repulsion energy      2590.1284464955 Hartrees.
 NAtoms=    9 NActive=    9 NUniq=    9 SFac= 1.00D+00 NAtFMM=   60 NAOKFM=F Big=F
 Integral buffers will be    131072 words long.
 Raffenetti 2 integral format.
 Two-electron integral symmetry is turned on.
 ------------------------------------------------------------------------------
 Polarizable Continuum Model (PCM)
 =================================
 Model                : PCM (using non-symmetric T matrix).
 Atomic radii         : UFF (Universal Force Field).
 Polarization charges : Total charges.
 Charge compensation  : None.
 Solution method      : On-the-fly selection.
 Cavity type          : Scaled VdW (van der Waals Surface) (Alpha=1.100).
 Cavity algorithm     : GePol (No added spheres)
                        Default sphere list used, NSphG=    9.
                        Lebedev-Laikov grids with approx.  5.0 points / Ang**2.
                        Smoothing algorithm: Karplus/York (Gamma=1.0000).
                        Polarization charges: spherical gaussians, with
                                              point-specific exponents (IZeta= 3).
                        Self-potential: point-specific (ISelfS= 7).
                        Self-field    : sphere-specific E.n sum rule (ISelfD= 2).
 1st derivatives      : Analytical E(r).r(x)/FMM algorithm (CHGder, D1EAlg=3).
                        Cavity 1st derivative terms included.
 Solvent              : Water, Eps=  78.355300 Eps(inf)=   1.777849
 ------------------------------------------------------------------------------
 Spheres list:
 ISph  on   Nord     Re0    Alpha      Xe            Ye            Ze
    1  Pt      1    1.3770  1.100      0.081749     -0.073402      0.153465
    2  Br      2    2.0945  1.100     -0.000707     -0.065616     -2.406467
    3  Br      3    2.0945  1.100     -0.777684      2.200510      0.350323
    4  Br      4    2.0945  1.100     -2.465398     -0.694282      0.161313
    5  Br      5    2.0945  1.100      2.428024      0.619024      0.091639
    6  Cl      6    1.9735  1.100      0.095399     -0.241331      2.585681
    7   N      7    1.8300  1.100      0.801669     -2.264862      0.079638
    8   O      8    1.7500  1.100      0.080527     -3.214194      0.135905
    9   O      9    1.7500  1.100      1.787209     -2.586464      0.692521
 ------------------------------------------------------------------------------
 One-electron integrals computed using PRISM.
   1 Symmetry operations used in ECPInt.
 ECPInt:  NShTT=    3403 NPrTT=   18378 LenC2=    3014 LenP2D=   10866.
 LDataN:  DoStor=T MaxTD1= 6 Len=  172
 NBasis=   210 RedAO= T EigKep=  5.21D-03  NBF=   210
 NBsUse=   210 1.00D-06 EigRej= -1.00D+00 NBFU=   210
 Defaulting to unpruned grid for atomic number  78.
 Initial guess from the checkpoint file:  "/home/scr/diego/Gau-21009.chk"
 B after Tr=     0.000000    0.000000    0.000000
         Rot=    0.969226    0.227417    0.029802   -0.089414 Ang=  28.50 deg.
 ExpMin= 2.90D-02 ExpMax= 1.13D+05 ExpMxC= 1.70D+04 IAcc=3 IRadAn=         5 AccDes= 0.00D+00
 Harris functional with IExCor=  402 and IRadAn=       5 diagonalized for initial guess.
 HarFok:  IExCor=  402 AccDes= 0.00D+00 IRadAn=         5 IDoV= 1 UseB2=F ITyADJ=14
 ICtDFT=  3500011 ScaDFX=  1.000000  1.000000  1.000000  1.000000
 Defaulting to unpruned grid for atomic number  78.
 Defaulting to unpruned grid for atomic number  78.
 Defaulting to unpruned grid for atomic number  78.
 Defaulting to unpruned grid for atomic number  78.
 Defaulting to unpruned grid for atomic number  78.
 Defaulting to unpruned grid for atomic number  78.
 Defaulting to unpruned grid for atomic number  78.
 Defaulting to unpruned grid for atomic number  78.
 FoFCou: FMM=F IPFlag=           0 FMFlag=      100000 FMFlg1=           0
         NFxFlg=           0 DoJE=T BraDBF=F KetDBF=T FulRan=T
         wScrn=  0.000000 ICntrl=     500 IOpCl=  0 I1Cent=   200000004 NGrid=           0
         NMat0=    1 NMatS0=      1 NMatT0=    0 NMatD0=    1 NMtDS0=    0 NMtDT0=    0
 Petite list used in FoFCou.
 Keep R1 ints in memory in canonical form, NReq=251996570.
 Requested convergence on RMS density matrix=1.00D-08 within 128 cycles.
 Requested convergence on MAX density matrix=1.00D-06.
 Requested convergence on             energy=1.00D-06.
 No special actions if energy rises.
 Defaulting to unpruned grid for atomic number  78.
 Defaulting to unpruned grid for atomic number  78.
 Defaulting to unpruned grid for atomic number  78.
 Defaulting to unpruned grid for atomic number  78.
 Defaulting to unpruned grid for atomic number  78.
 Defaulting to unpruned grid for atomic number  78.
 Defaulting to unpruned grid for atomic number  78.
 Defaulting to unpruned grid for atomic number  78.
 Inv3:  Mode=1 IEnd=     8803107.
 Iteration    1 A*A^-1 deviation from unit magnitude is 6.88D-15 for   1646.
 Iteration    1 A*A^-1 deviation from orthogonality  is 3.67D-15 for   1691    716.
 Iteration    1 A^-1*A deviation from unit magnitude is 6.66D-15 for   1646.
 Iteration    1 A^-1*A deviation from orthogonality  is 1.47D-13 for    352    240.
 Error on total polarization charges =  0.01583
 SCF Done:  E(RB3LYP) =  -11080.0960875     A.U. after   15 cycles
            NFock= 15  Conv=0.67D-08     -V/T= 2.0087
   1 Symmetry operations used in ECPInt.
 ECPInt:  NShTT=    3403 NPrTT=   18378 LenC2=    3014 LenP2D=   10866.
 LDataN:  DoStor=T MaxTD1= 7 Len=  274
 D1PCM: PCM CHGder 1st derivatives, ID1Alg=3 FixD1E=F DoIter=F DoCFld=F I1PDM=0.
 Calling FoFJK, ICntrl=      2127 FMM=F ISym2X=0 I1Cent= 0 IOpClX= 0 NMat=1 NMatS=1 NMatT=0.
 Defaulting to unpruned grid for atomic number  78.
 Defaulting to unpruned grid for atomic number  78.
 Defaulting to unpruned grid for atomic number  78.
 Defaulting to unpruned grid for atomic number  78.
 Defaulting to unpruned grid for atomic number  78.
 Defaulting to unpruned grid for atomic number  78.
 Defaulting to unpruned grid for atomic number  78.
 Defaulting to unpruned grid for atomic number  78.
 ***** Axes restored to original set *****
 -------------------------------------------------------------------
 Center     Atomic                   Forces (Hartrees/Bohr)
 Number     Number              X              Y              Z
 -------------------------------------------------------------------
      1       78          -0.030679978    0.030014590   -0.006992076
      2       35           0.000711201   -0.000911600    0.001794568
      3       35           0.022756013   -0.006039456   -0.001411631
      4       35          -0.006724796   -0.003344439    0.000390900
      5       35           0.000707288   -0.020153499    0.000263231
      6       17          -0.001490651   -0.001546930   -0.002406137
      7        7          -0.018243593    0.001875585    0.061714189
      8        8           0.007244859    0.133977692   -0.066508783
      9        8           0.025719656   -0.133871943    0.013155740
 -------------------------------------------------------------------
 Cartesian Forces:  Max     0.133977692 RMS     0.042274575

 GradGradGradGradGradGradGradGradGradGradGradGradGradGradGradGradGradGrad
 Berny optimization.
 Using GEDIIS/GDIIS optimizer.
 FormGI is forming the generalized inverse of G from B-inverse, IUseBI=4.
 Internal  Forces:  Max     0.134852557 RMS     0.037013404
 Search for a local minimum.
 Step number   4 out of a maximum of   47
 All quantities printed in internal units (Hartrees-Bohrs-Radians)
 Mixed Optimization -- RFO/linear search
 Update second derivatives using D2CorX and points    3    4
 ITU=  0  0  1  0
 Use linear search instead of GDIIS.
     Eigenvalues ---    0.00230   0.01451   0.08390   0.09396   0.12429
     Eigenvalues ---    0.12570   0.12670   0.13525   0.14032   0.16731
     Eigenvalues ---    0.19510   0.19761   0.21726   0.24626   0.24994
     Eigenvalues ---    0.25000   0.28153   0.34435   0.52948   0.77659
     Eigenvalues ---    0.90963
 RFO step:  Lambda=-9.42150925D-02 EMin= 2.30011797D-03
 Quartic linear search produced a step of -0.22960.
 Iteration  1 RMS(Cart)=  0.07506870 RMS(Int)=  0.02179311
 Iteration  2 RMS(Cart)=  0.02441995 RMS(Int)=  0.00074855
 Iteration  3 RMS(Cart)=  0.00071035 RMS(Int)=  0.00025849
 Iteration  4 RMS(Cart)=  0.00000028 RMS(Int)=  0.00025849
 Variable       Old X    -DE/DX   Delta X   Delta X   Delta X     New X
                                 (Linear)    (Quad)   (Total)
    R1        4.84010  -0.00187  -0.02444   0.03638   0.01193   4.85204
    R2        4.60878   0.02251  -0.08358   0.16064   0.07706   4.68584
    R3        4.95437  -0.00388  -0.03570   0.04589   0.01019   4.96456
    R4        4.62434   0.02009  -0.08512   0.16157   0.07646   4.70080
    R5        4.60724  -0.00246  -0.02943   0.04359   0.01416   4.62140
    R6        4.36123  -0.01422  -0.05919   0.04291  -0.01628   4.34495
    R7        2.25539   0.10061   0.03100   0.04988   0.08088   2.33627
    R8        2.27580   0.08736   0.02899   0.03730   0.06630   2.34210
    A1        1.63734  -0.00207  -0.00655   0.00427  -0.00228   1.63506
    A2        1.54323   0.00050   0.00262   0.00111   0.00366   1.54689
    A3        1.57555  -0.00015  -0.00042  -0.00130  -0.00167   1.57389
    A4        1.55175   0.00181   0.00190   0.00245   0.00433   1.55608
    A5        1.44869   0.01587   0.01198   0.03435   0.04629   1.49498
    A6        1.64696  -0.00959  -0.00752  -0.01688  -0.02440   1.62256
    A7        1.55646   0.00315   0.00145   0.00625   0.00768   1.56414
    A8        1.55694   0.00075   0.00122   0.00197   0.00297   1.55991
    A9        1.64916  -0.01001  -0.00774  -0.01610  -0.02385   1.62531
   A10        1.61013  -0.00145  -0.00384  -0.00234  -0.00614   1.60399
   A11        1.53958   0.00369   0.00309  -0.00125   0.00185   1.54143
   A12        1.53555  -0.00253   0.00353  -0.01195  -0.00848   1.52707
   A13        2.17160  -0.07550  -0.02340  -0.10549  -0.12805   2.04355
   A14        2.08584  -0.06844  -0.01488  -0.09692  -0.11096   1.97488
   A15        1.83181   0.13485   0.01075   0.33234   0.34403   2.17584
   A16        3.19381   0.00108  -0.00511   0.01052   0.00539   3.19920
   A17        3.18909  -0.00026  -0.00465   0.00672   0.00204   3.19114
   A18        3.11878   0.00036   0.00220  -0.00020   0.00200   3.12077
   A19        3.09337   0.00206   0.00490   0.00380   0.00890   3.10226
   A20        3.18693  -0.00594  -0.00450  -0.01817  -0.02269   3.16424
[...]
 Rotational               0.889              2.981             33.809
 Vibrational             17.175             33.769             50.605
 Vibration     1          0.595              1.979              4.939
 Vibration     2          0.597              1.971              4.308
 Vibration     3          0.599              1.965              4.003
 Vibration     4          0.601              1.960              3.801
 Vibration     5          0.602              1.956              3.647
 Vibration     6          0.604              1.950              3.477
 Vibration     7          0.605              1.946              3.384
 Vibration     8          0.608              1.935              3.146
 Vibration     9          0.611              1.926              2.993
 Vibration    10          0.614              1.915              2.833
 Vibration    11          0.626              1.879              2.427
 Vibration    12          0.628              1.870              2.353
 Vibration    13          0.637              1.843              2.155
 Vibration    14          0.642              1.825              2.042
 Vibration    15          0.667              1.748              1.672
 Vibration    16          0.684              1.699              1.495
 Vibration    17          0.710              1.622              1.276
 Vibration    18          0.960              1.027              0.446
                       Q            Log10(Q)             Ln(Q)
 Total Bot       0.912237D+14         13.960107         32.144335
 Total V=0       0.221138D+22         21.344663         49.147903
 Vib (Bot)       0.295266D-01         -1.529787         -3.522464
 Vib (Bot)    1  0.439734D+01          0.643190          1.480999
 Vib (Bot)    2  0.318983D+01          0.503768          1.159968
 Vib (Bot)    3  0.272687D+01          0.435664          1.003154
 Vib (Bot)    4  0.245754D+01          0.390500          0.899161
 Vib (Bot)    5  0.226852D+01          0.355743          0.819128
 Vib (Bot)    6  0.207702D+01          0.317441          0.730934
 Vib (Bot)    7  0.197776D+01          0.296173          0.681963
 Vib (Bot)    8  0.174471D+01          0.241723          0.556588
 Vib (Bot)    9  0.160859D+01          0.206445          0.475356
 Vib (Bot)   10  0.147543D+01          0.168920          0.388952
 Vib (Bot)   11  0.118003D+01          0.071892          0.165538
 Vib (Bot)   12  0.113141D+01          0.053619          0.123462
 Vib (Bot)   13  0.100957D+01          0.004138          0.009529
 Vib (Bot)   14  0.945040D+00         -0.024550         -0.056528
 Vib (Bot)   15  0.752102D+00         -0.123723         -0.284883
 Vib (Bot)   16  0.669051D+00         -0.174540         -0.401894
 Vib (Bot)   17  0.573010D+00         -0.241838         -0.556851
 Vib (Bot)   18  0.247496D+00         -0.606432         -1.396361
 Vib (V=0)       0.715763D+06          5.854769         13.481104
 Vib (V=0)    1  0.492567D+01          0.692466          1.594461
 Vib (V=0)    2  0.372878D+01          0.571567          1.316081
 Vib (V=0)    3  0.327233D+01          0.514857          1.185502
 Vib (V=0)    4  0.300789D+01          0.478262          1.101238
 Vib (V=0)    5  0.282297D+01          0.450706          1.037790
 Vib (V=0)    6  0.263636D+01          0.421004          0.969397
 Vib (V=0)    7  0.253998D+01          0.404830          0.932156
 Vib (V=0)    8  0.231494D+01          0.364540          0.839384
 Vib (V=0)    9  0.218450D+01          0.339353          0.781389
 Vib (V=0)   10  0.205785D+01          0.313414          0.721663
 Vib (V=0)   11  0.178159D+01          0.250807          0.577504
 Vib (V=0)   12  0.173696D+01          0.239791          0.552139
 Vib (V=0)   13  0.162661D+01          0.211282          0.486496
 Vib (V=0)   14  0.156916D+01          0.195667          0.450540
 Vib (V=0)   15  0.140314D+01          0.147100          0.338711
 Vib (V=0)   16  0.133524D+01          0.125560          0.289113
 Vib (V=0)   17  0.126049D+01          0.100538          0.231498
 Vib (V=0)   18  0.105790D+01          0.024445          0.056287
 Electronic      0.100000D+01          0.000000          0.000000
 Translational   0.565584D+09          8.752497         20.153370
 Rotational      0.546257D+07          6.737397         15.513430
 ***** Axes restored to original set *****
 -------------------------------------------------------------------
 Center     Atomic                   Forces (Hartrees/Bohr)
 Number     Number              X              Y              Z
 -------------------------------------------------------------------
      1       78           0.000001222    0.000023540    0.000053785
      2       35           0.000025887    0.000054360   -0.000001666
      3       35           0.000002523    0.000056855    0.000026390
      4       35          -0.000045587   -0.000010425    0.000042800
      5       35           0.000061189    0.000017059   -0.000051917
      6       17          -0.000030530   -0.000028179   -0.000005849
      7        7           0.000000926   -0.000028730   -0.000006085
      8        8          -0.000017654   -0.000020179   -0.000026863
      9        8           0.000002023   -0.000064302   -0.000030596
 -------------------------------------------------------------------
 Cartesian Forces:  Max     0.000064302 RMS     0.000033830
 FormGI is forming the generalized inverse of G from B-inverse, IUseBI=4.

 GradGradGradGradGradGradGradGradGradGradGradGradGradGradGradGradGradGrad
 Berny optimization.
 Internal  Forces:  Max     0.000022689 RMS     0.000009895
 Search for a local minimum.
 Step number   1 out of a maximum of    2
 All quantities printed in internal units (Hartrees-Bohrs-Radians)
 Second derivative matrix not updated -- analytic derivatives used.
 ITU=  0
     Eigenvalues ---    0.00207   0.04331   0.04568   0.05979   0.06120
     Eigenvalues ---    0.06883   0.07429   0.07917   0.08397   0.08575
     Eigenvalues ---    0.09247   0.09817   0.10408   0.10489   0.11970
     Eigenvalues ---    0.12691   0.15017   0.19421   0.32161   0.59331
     Eigenvalues ---    0.84847
 Angle between quadratic step and forces=  41.78 degrees.
 Linear search not attempted -- first point.
 Iteration  1 RMS(Cart)=  0.00022537 RMS(Int)=  0.00000002
 Iteration  2 RMS(Cart)=  0.00000003 RMS(Int)=  0.00000000
 Variable       Old X    -DE/DX   Delta X   Delta X   Delta X     New X
                                 (Linear)    (Quad)   (Total)
    R1        4.82548   0.00001   0.00000   0.00012   0.00012   4.82560
    R2        4.94199   0.00000   0.00000   0.00001   0.00001   4.94200
    R3        4.84828  -0.00002   0.00000  -0.00027  -0.00027   4.84801
    R4        4.84810   0.00000   0.00000  -0.00004  -0.00004   4.84806
    R5        4.58255  -0.00001   0.00000  -0.00014  -0.00014   4.58241
    R6        3.99818   0.00001   0.00000   0.00005   0.00005   3.99823
    R7        2.29516   0.00002   0.00000   0.00002   0.00002   2.29518
    R8        2.29490   0.00001   0.00000   0.00001   0.00001   2.29492
    A1        1.57239  -0.00001   0.00000  -0.00004  -0.00004   1.57234
    A2        1.58486  -0.00001   0.00000  -0.00020  -0.00020   1.58466
    A3        1.55174  -0.00001   0.00000  -0.00010  -0.00010   1.55164
    A4        1.57764   0.00000   0.00000  -0.00004  -0.00004   1.57760
    A5        1.58602   0.00000   0.00000   0.00001   0.00001   1.58603
    A6        1.57686  -0.00002   0.00000  -0.00024  -0.00024   1.57662
    A7        1.56368   0.00001   0.00000   0.00014   0.00014   1.56382
    A8        1.55448   0.00001   0.00000   0.00015   0.00015   1.55463
    A9        1.55721   0.00000   0.00000   0.00010   0.00010   1.55731
   A10        1.59222   0.00001   0.00000   0.00015   0.00015   1.59237
   A11        1.56313   0.00002   0.00000   0.00014   0.00014   1.56327
   A12        1.56949   0.00000   0.00000  -0.00006  -0.00006   1.56943
   A13        2.06000   0.00000   0.00000   0.00002   0.00002   2.06002
   A14        2.05688   0.00000   0.00000  -0.00003  -0.00003   2.05685
   A15        2.16630   0.00000   0.00000   0.00001   0.00001   2.16631
   A16        3.13606   0.00001   0.00000   0.00010   0.00010   3.13617
   A17        3.15002  -0.00001   0.00000  -0.00008  -0.00008   3.14994
   A18        3.13660  -0.00001   0.00000  -0.00030  -0.00030   3.13630
   A19        3.13926   0.00000   0.00000  -0.00004  -0.00004   3.13921
   A20        3.13983   0.00000   0.00000  -0.00010  -0.00010   3.13973
   A21        3.16288  -0.00002   0.00000  -0.00024  -0.00024   3.16264
    D1       -0.74243   0.00000   0.00000  -0.00005  -0.00005  -0.74248
    D2        2.40416   0.00000   0.00000  -0.00018  -0.00018   2.40398
    D3        0.84234   0.00000   0.00000  -0.00024  -0.00024   0.84209
    D4       -2.29426  -0.00001   0.00000  -0.00037  -0.00037  -2.29463
    D5       -2.29412   0.00001   0.00000   0.00005   0.00005  -2.29407
    D6        0.85247   0.00001   0.00000  -0.00008  -0.00008   0.85240
    D7        2.39684   0.00000   0.00000  -0.00009  -0.00009   2.39674
    D8       -0.73976   0.00000   0.00000  -0.00022  -0.00022  -0.73998
         Item               Value     Threshold  Converged?
 Maximum Force            0.000023     0.000450     YES
 RMS     Force            0.000010     0.000300     YES
 Maximum Displacement     0.000632     0.001800     YES
 RMS     Displacement     0.000225     0.001200     YES
 Predicted change in Energy=-2.006506D-08
 Optimization completed.
    -- Stationary point found.
                           ----------------------------
                           !   Optimized Parameters   !
                           ! (Angstroms and Degrees)  !
 --------------------------                            --------------------------
 ! Name  Definition              Value          Derivative Info.                !
 --------------------------------------------------------------------------------
 ! R1    R(1,2)                  2.5535         -DE/DX =    0.0                 !
 ! R2    R(1,3)                  2.6152         -DE/DX =    0.0                 !
 ! R3    R(1,4)                  2.5656         -DE/DX =    0.0                 !
 ! R4    R(1,5)                  2.5655         -DE/DX =    0.0                 !
 ! R5    R(1,6)                  2.425          -DE/DX =    0.0                 !
 ! R6    R(1,7)                  2.1157         -DE/DX =    0.0                 !
 ! R7    R(7,8)                  1.2145         -DE/DX =    0.0                 !
 ! R8    R(7,9)                  1.2144         -DE/DX =    0.0                 !
 ! A1    A(2,1,3)               90.0911         -DE/DX =    0.0                 !
 ! A2    A(2,1,4)               90.8056         -DE/DX =    0.0                 !
 ! A3    A(2,1,5)               88.9084         -DE/DX =    0.0                 !
 ! A4    A(2,1,7)               90.392          -DE/DX =    0.0                 !
 ! A5    A(3,1,4)               90.8724         -DE/DX =    0.0                 !
 ! A6    A(3,1,5)               90.3474         -DE/DX =    0.0                 !
 ! A7    A(3,1,6)               89.5922         -DE/DX =    0.0                 !
 ! A8    A(4,1,6)               89.0653         -DE/DX =    0.0                 !
 ! A9    A(4,1,7)               89.2218         -DE/DX =    0.0                 !
 ! A10   A(5,1,6)               91.2274         -DE/DX =    0.0                 !
 ! A11   A(5,1,7)               89.5608         -DE/DX =    0.0                 !
 ! A12   A(6,1,7)               89.925          -DE/DX =    0.0                 !
 ! A13   A(1,7,8)              118.0291         -DE/DX =    0.0                 !
 ! A14   A(1,7,9)              117.8505         -DE/DX =    0.0                 !
 ! A15   A(8,7,9)              124.1198         -DE/DX =    0.0                 !
 ! A16   L(2,1,6,3,-1)         179.6833         -DE/DX =    0.0                 !
 ! A17   L(3,1,7,2,-1)         180.483          -DE/DX =    0.0                 !
 ! A18   L(4,1,5,2,-1)         179.714          -DE/DX =    0.0                 !
 ! A19   L(2,1,6,3,-2)         179.8661         -DE/DX =    0.0                 !
 ! A20   L(3,1,7,2,-2)         179.899          -DE/DX =    0.0                 !
 ! A21   L(4,1,5,2,-2)         181.2195         -DE/DX =    0.0                 !
 ! D1    D(2,1,7,8)            -42.5381         -DE/DX =    0.0                 !
 ! D2    D(2,1,7,9)            137.7484         -DE/DX =    0.0                 !
 ! D3    D(4,1,7,8)             48.2623         -DE/DX =    0.0                 !
 ! D4    D(4,1,7,9)           -131.4512         -DE/DX =    0.0                 !
 ! D5    D(5,1,7,8)           -131.4434         -DE/DX =    0.0                 !
 ! D6    D(5,1,7,9)             48.8431         -DE/DX =    0.0                 !
 ! D7    D(6,1,7,8)            137.3286         -DE/DX =    0.0                 !
 ! D8    D(6,1,7,9)            -42.3849         -DE/DX =    0.0                 !
 --------------------------------------------------------------------------------
 GradGradGradGradGradGradGradGradGradGradGradGradGradGradGradGradGradGrad

 1\1\GINC-NEQC17\Freq\RB3LYP\Gen\Br4Cl1N1O2Pt1(2-)\DIEGO\18-Aug-2021\0\
 \#N Geom=AllCheck Guess=TCheck SCRF=Check GenChk RB3LYP/ChkBas Freq\\E
 strutura 35\\-2,1\Pt,-0.3180119182,0.4170670789,0.0845499382\Br,-0.523
 809446,0.513373969,-2.458855593\Br,2.2883262422,0.3653794744,-0.124123
 8041\Br,-0.2958714045,2.9792005739,0.2159919203\Br,-0.3955895964,-2.14
 34518313,-0.0551979266\Cl,-0.1090918087,0.3310077502,2.4989826193\N,-2
 .425192225,0.4544842707,0.2709985922\O,-3.0474918858,1.2186536337,-0.4
 388665427\O,-2.9358738274,-0.2868976295,1.0860766164\\Version=EM64L-G0
 9RevD.01\State=1-A\HF=-11080.1572946\RMSD=5.476e-09\RMSF=3.383e-05\Zer
 oPoint=0.0160545\Thermal=0.0302025\Dipole=0.0663497,0.0285001,-0.75231
 93\DipoleDeriv=1.0783481,0.0067654,0.0539333,0.0083674,1.4260585,0.132
 5422,0.0094212,0.1382444,1.2603556,-0.1322681,-0.0248588,-0.1140866,-0
 .0085566,-0.0651225,0.0396543,-0.0291176,0.0409602,-1.271101,-1.62986,
 0.0228762,0.1264523,0.0345481,-0.1833755,-0.0055678,0.0853984,-0.00119
 59,-0.2129219,-0.1274214,0.0374518,0.0273992,-0.0730054,-1.4846019,-0.
 0789713,0.0024745,-0.1059051,-0.0998093,-0.1350579,-0.0750315,-0.03304
 66,0.0184471,-1.4782573,-0.0781892,-0.0096959,-0.07093,-0.0904466,-0.1
 86007,0.0309766,-0.1104695,0.0115323,-0.1222492,0.0319917,-0.1390108,0
 .0440625,-1.4872045,3.2148739,-0.1080449,-0.2999404,-0.1059831,1.32847
 55,-0.8830845,-0.2101945,-0.8791593,1.3850237,-2.0962981,0.3886219,-0.
 1704216,0.5460684,-0.7213886,0.3712738,-0.3547983,0.392351,-0.660277,-
 1.9863096,-0.2787567,0.5201798,-0.4314181,-0.699539,0.4703508,0.645523
 ,0.4415722,-0.8236191\Polar=230.6680029,-0.4094095,253.9384641,-1.3788
 11,-3.5943889,221.3153522\PG=C01 [X(Br4Cl1N1O2Pt1)]\NImag=0\\0.1784351
 0,-0.00028757,0.21704342,0.00557985,-0.00971338,0.23672865,-0.01325304
 ,0.00058132,-0.00630092,0.01472027,-0.00030558,-0.01574745,0.00243106,
 -0.00132884,0.01259253,-0.00548316,0.00295199,-0.06895410,0.00421450,-
 0.00411343,0.08393704,-0.05068389,0.00063362,0.00220976,-0.00141676,0.
 00020609,-0.00176604,0.06746573,0.00053077,-0.01785155,0.00079012,0.00
 011878,0.00078592,0.00114932,-0.00061324,0.01289217,0.00260430,0.00067
 247,-0.01780686,-0.00381694,0.00098207,-0.00069769,-0.00366356,-0.0005
 6668,0.01124742,-0.01194961,0.00033221,-0.00038196,0.00091121,-0.00040
 106,0.00067384,-0.00121066,0.00467191,0.00028628,0.01330885,-0.0004114
 6,-0.06479867,-0.00218682,-0.00052770,0.00042622,-0.00162391,0.0026694
 7,-0.00058532,0.00026431,0.00187725,0.07915289,0.00021743,-0.00235411,
 -0.01448411,-0.00017832,-0.00383936,-0.00006202,0.00037869,-0.00025509
 ,0.00218739,0.00075627,0.00202122,0.00865431,-0.01198812,-0.00253638,0
 .00006336,0.00004656,0.00028929,0.00011323,-0.00296902,-0.00430450,-0.
 00113102,0.00269419,-0.00025881,-0.00001558,0.01445992,-0.00145269,-0.
 06487867,-0.00140941,-0.00001123,-0.00174292,0.00285291,-0.00246376,-0
 .00106072,-0.00072295,-0.00017858,-0.01041132,-0.00100973,-0.00006685,
 0.08167303,-0.00056310,-0.00191536,-0.01456335,0.00015593,0.00539744,-
 0.00140984,-0.00086468,-0.00064317,0.00010129,-0.00001380,-0.00081995,
 0.00278600,-0.00021197,0.00441608,0.01394882,-0.01416939,-0.00008056,-
 0.00449833,0.00303329,0.00001679,-0.00131915,-0.00238642,-0.00061184,0
 .00459509,0.00091607,0.00025757,-0.00035537,0.00048026,0.00043507,-0.0
 0037642,0.01806437,0.00064485,-0.01657854,0.00296461,0.00002181,0.0033
 5125,0.00028474,-0.00065232,0.00012694,0.00008080,0.00032405,-0.002065
 18,0.00562139,0.00025320,-0.00179096,-0.00501276,0.00142913,0.01604387
 ,-0.00581349,0.00342625,-0.08201329,-0.00112790,0.00029846,-0.01049124
 ,0.00252025,0.00021689,-0.00062227,-0.00012439,0.00316906,0.00041291,-
 0.00033018,-0.00305878,-0.00089672,0.00807331,-0.00312959,0.09343942,-
 0.06287950,-0.00084464,0.00080640,-0.00408747,0.00077542,0.00140336,0.
 02068380,-0.00032666,-0.00081459,-0.00545429,-0.00184355,-0.00007844,-
 0.00418250,0.00175545,0.00121343,-0.00552081,-0.00052784,-0.00144760,0
 .54553740,-0.00082538,-0.04319333,-0.01419444,0.00257992,-0.00041379,-
 0.00052005,-0.00018145,0.00688400,0.00079278,-0.00238786,-0.00131771,0
 .00128214,0.00258978,-0.00124425,0.00118120,-0.00383333,-0.00065870,-0
 .00039492,-0.03537204,0.53973145,0.00146926,-0.01395557,-0.04426503,0.
 00252115,0.00115191,-0.00067930,-0.00139787,0.00081768,0.00692225,-0.0
 0233517,-0.00024501,-0.00029311,0.00338039,-0.00067029,-0.00096366,-0.
 00072725,0.00161894,-0.00011606,-0.00699471,-0.38611547,0.55304354,-0.
 00816372,0.01656751,-0.01477036,-0.00061018,0.00087384,0.00177406,-0.0
 1498913,-0.00087949,0.00218059,-0.00021189,-0.00146003,-0.00061842,0.0
 0077135,0.00015545,-0.00001891,0.00063866,0.00002162,-0.00014816,-0.26
 421797,0.17128402,-0.15121983,0.23819408,0.00585816,0.00258890,0.01043
 105,-0.00065022,0.00039828,-0.00089296,0.00524073,-0.00068362,-0.00113
 877,-0.00440361,-0.00066227,-0.00099566,-0.00023121,0.00028936,-0.0005
 5983,0.00118161,0.00047568,-0.00021349,0.16403608,-0.25577874,0.188268
 48,-0.18424369,0.31612751,-0.00340370,0.00913089,0.00471401,0.00454069
 ,-0.00189383,-0.00166102,-0.00382766,-0.00053376,-0.00038914,0.0005649
 9,-0.00035264,0.00049231,-0.00077297,-0.00023238,0.00052068,-0.0003523
 8,-0.00058984,0.00012714,-0.14381971,0.18725845,-0.22835476,0.16376799
 ,-0.27775490,0.28922580,-0.00534784,-0.01436551,0.01729220,0.00065613,
 -0.00012596,0.00038936,-0.01449365,0.00141429,-0.00024013,0.00099613,-
 0.00030274,-0.00010626,0.00068735,0.00182714,0.00067952,-0.00105603,-0
 .00151452,-0.00160185,-0.21987866,-0.13385365,0.15530401,0.04858878,0.
 01321213,-0.01669725,0.18984779,-0.00375110,0.00341589,0.01088720,-0.0
 0078384,0.00034997,-0.00008861,-0.00483914,-0.00050781,-0.00036401,0.0
 0016569,0.00026136,-0.00047079,0.00426550,-0.00083355,-0.00204364,0.00
 120556,0.00109565,-0.00031388,-0.12765223,-0.24400894,0.20912934,-0.00
 231923,-0.06275509,0.08496800,0.13370881,0.30298252,0.00539261,0.01175
 682,0.00064407,-0.00000820,-0.00041431,0.00001816,0.00641110,-0.000975
 32,-0.00094237,0.00057394,-0.00022626,0.00030631,-0.00109525,-0.000165
 46,0.00047679,-0.00503950,-0.00183828,0.00016011,0.14973187,0.21071032
 ,-0.28529386,-0.00094697,0.08285609,-0.06467502,-0.15501960,-0.3017036
 0,0.34930581\\-0.00000122,-0.00002354,-0.00005378,-0.00002589,-0.00005
 436,0.00000167,-0.00000252,-0.00005686,-0.00002639,0.00004559,0.000010
 42,-0.00004280,-0.00006119,-0.00001706,0.00005192,0.00003053,0.0000281
 8,0.00000585,-0.00000093,0.00002873,0.00000608,0.00001765,0.00002018,0
 .00002686,-0.00000202,0.00006430,0.00003060\\\@


 ABSOLUTISM, OBSOLETISM -- IF IT WORKS, IT'S OUT OF DATE

                          -- STAFFORD BEER
 Job cpu time:       0 days  0 hours 18 minutes 27.1 seconds.
 File lengths (MBytes):  RWF=    126 Int=      0 D2E=      0 Chk=      8 Scr=      1
 Normal termination of Gaussian 09 at Wed Aug 18 05:13:58 2021.
