 Entering Gaussian System, Link 0=g09
 Input=estrutura36_D2O.com
 Output=estrutura36_D2O.log
 Initial command:
 /home/scr/programs/g09/l1.exe "/home/scr/diego/Gau-22692.inp" -scrdir="/home/scr/diego/"
 Entering Link 1 = /home/scr/programs/g09/l1.exe PID=     22694.
  
 Copyright (c) 1988,1990,1992,1993,1995,1998,2003,2009,2013,
            Gaussian, Inc.  All Rights Reserved.
  
 This is part of the Gaussian(R) 09 program.  It is based on
 the Gaussian(R) 03 system (copyright 2003, Gaussian, Inc.),
 the Gaussian(R) 98 system (copyright 1998, Gaussian, Inc.),
 the Gaussian(R) 94 system (copyright 1995, Gaussian, Inc.),
 the Gaussian 92(TM) system (copyright 1992, Gaussian, Inc.),
 the Gaussian 90(TM) system (copyright 1990, Gaussian, Inc.),
 the Gaussian 88(TM) system (copyright 1988, Gaussian, Inc.),
 the Gaussian 86(TM) system (copyright 1986, Carnegie Mellon
 University), and the Gaussian 82(TM) system (copyright 1983,
 Carnegie Mellon University). Gaussian is a federally registered
 trademark of Gaussian, Inc.
  
 This software contains proprietary and confidential information,
 including trade secrets, belonging to Gaussian, Inc.
  
 This software is provided under written license and may be
 used, copied, transmitted, or stored only in accord with that
 written license.
  
 The following legend is applicable only to US Government
 contracts under FAR:
  
                    RESTRICTED RIGHTS LEGEND
  
 Use, reproduction and disclosure by the US Government is
 subject to restrictions as set forth in subparagraphs (a)
 and (c) of the Commercial Computer Software - Restricted
 Rights clause in FAR 52.227-19.
  
 Gaussian, Inc.
 340 Quinnipiac St., Bldg. 40, Wallingford CT 06492
  
  
 ---------------------------------------------------------------
 Warning -- This program may not be used in any manner that
 competes with the business of Gaussian, Inc. or will provide
 assistance to any competitor of Gaussian, Inc.  The licensee
 of this program is prohibited from giving any competitor of
 Gaussian, Inc. access to this program.  By using this program,
 the user acknowledges that Gaussian, Inc. is engaged in the
 business of creating and licensing software in the field of
 computational chemistry and represents and warrants to the
 licensee that it is not a competitor of Gaussian, Inc. and that
 it will not use this program in any manner prohibited above.
 ---------------------------------------------------------------
  

 Cite this work as:
 Gaussian 09, Revision D.01,
 M. J. Frisch, G. W. Trucks, H. B. Schlegel, G. E. Scuseria, 
 M. A. Robb, J. R. Cheeseman, G. Scalmani, V. Barone, B. Mennucci, 
 G. A. Petersson, H. Nakatsuji, M. Caricato, X. Li, H. P. Hratchian, 
 A. F. Izmaylov, J. Bloino, G. Zheng, J. L. Sonnenberg, M. Hada, 
 M. Ehara, K. Toyota, R. Fukuda, J. Hasegawa, M. Ishida, T. Nakajima, 
 Y. Honda, O. Kitao, H. Nakai, T. Vreven, J. A. Montgomery, Jr., 
 J. E. Peralta, F. Ogliaro, M. Bearpark, J. J. Heyd, E. Brothers, 
 K. N. Kudin, V. N. Staroverov, T. Keith, R. Kobayashi, J. Normand, 
 K. Raghavachari, A. Rendell, J. C. Burant, S. S. Iyengar, J. Tomasi, 
 M. Cossi, N. Rega, J. M. Millam, M. Klene, J. E. Knox, J. B. Cross, 
 V. Bakken, C. Adamo, J. Jaramillo, R. Gomperts, R. E. Stratmann, 
 O. Yazyev, A. J. Austin, R. Cammi, C. Pomelli, J. W. Ochterski, 
 R. L. Martin, K. Morokuma, V. G. Zakrzewski, G. A. Voth, 
 P. Salvador, J. J. Dannenberg, S. Dapprich, A. D. Daniels, 
 O. Farkas, J. B. Foresman, J. V. Ortiz, J. Cioslowski, 
 and D. J. Fox, Gaussian, Inc., Wallingford CT, 2013.
 
 ******************************************
 Gaussian 09:  EM64L-G09RevD.01 24-Apr-2013
                18-Aug-2021 
 ******************************************
 %mem=15gb
 %nproc=8
 Will use up to    8 processors via shared memory.
 ------------------------------------------------------------
 #b3lyp/gen pseudo=read opt freq=noraman scrf=(solvent=water)
 ------------------------------------------------------------
 1/14=-1,18=20,19=15,26=3,38=1/1,3;
 2/9=110,12=2,17=6,18=5,40=1/2;
 3/5=7,11=2,16=1,17=8,25=1,30=1,70=2201,71=1,72=1,74=-5/1,2,3;
 4//1;
 5/5=2,38=5,53=1/2;
 6/7=2,8=2,9=2,10=2,28=1/1;
 7//1,2,3,16;
 1/14=-1,18=20,19=15,26=3/3(2);
 2/9=110/2;
 99//99;
 2/9=110/2;
 3/5=7,6=1,11=2,16=1,17=8,25=1,30=1,70=2205,71=1,72=1,74=-5,82=7/1,2,3;
 4/5=5,16=3,69=1/1;
 5/5=2,38=5,53=1/2;
 7//1,2,3,16;
 1/14=-1,18=20,19=15,26=3/3(-5);
 2/9=110/2;
 6/7=2,8=2,9=2,10=2,19=2,28=1/1;
 99/9=1/99;
 ------------
 Estrutura 36
 ------------
 Symbolic Z-matrix:
 Charge = -2 Multiplicity = 1
 Pt                   -0.31955   0.33835   0. 
 Br                   -0.31955   0.33835  -2.43 
 Br                    1.67045   0.33835   0. 
 Br                   -0.31955   2.76835   0. 
 Br                   -0.31955  -1.65165   0. 
 N                    -2.30955   0.33835   0. 
 O                    -2.76288   1.58503   0.2998 
 O                    -2.76288  -0.54463   0.92976 
 Br                   -0.31955   0.33835   2.43 
 

 GradGradGradGradGradGradGradGradGradGradGradGradGradGradGradGradGradGrad
 Berny optimization.
 Initialization pass.
                           ----------------------------
                           !    Initial Parameters    !
                           ! (Angstroms and Degrees)  !
 --------------------------                            --------------------------
 ! Name  Definition              Value          Derivative Info.                !
 --------------------------------------------------------------------------------
 ! R1    R(1,2)                  2.43           estimate D2E/DX2                !
 ! R2    R(1,3)                  1.99           estimate D2E/DX2                !
 ! R3    R(1,4)                  2.43           estimate D2E/DX2                !
 ! R4    R(1,5)                  1.99           estimate D2E/DX2                !
 ! R5    R(1,6)                  1.99           estimate D2E/DX2                !
 ! R6    R(1,9)                  2.43           estimate D2E/DX2                !
 ! R7    R(6,7)                  1.36           estimate D2E/DX2                !
 ! R8    R(6,8)                  1.36           estimate D2E/DX2                !
 ! A1    A(2,1,3)               90.0            estimate D2E/DX2                !
 ! A2    A(2,1,4)               90.0            estimate D2E/DX2                !
 ! A3    A(2,1,5)               90.0            estimate D2E/DX2                !
 ! A4    A(2,1,6)               90.0            estimate D2E/DX2                !
 ! A5    A(3,1,4)               90.0            estimate D2E/DX2                !
 ! A6    A(3,1,5)               90.0            estimate D2E/DX2                !
 ! A7    A(3,1,9)               90.0            estimate D2E/DX2                !
 ! A8    A(4,1,6)               90.0            estimate D2E/DX2                !
 ! A9    A(4,1,9)               90.0            estimate D2E/DX2                !
 ! A10   A(5,1,6)               90.0            estimate D2E/DX2                !
 ! A11   A(5,1,9)               90.0            estimate D2E/DX2                !
 ! A12   A(6,1,9)               90.0            estimate D2E/DX2                !
 ! A13   A(1,6,7)              109.4712         estimate D2E/DX2                !
 ! A14   A(1,6,8)              109.4712         estimate D2E/DX2                !
 ! A15   A(7,6,8)              109.4713         estimate D2E/DX2                !
 ! A16   L(2,1,9,3,-1)         180.0            estimate D2E/DX2                !
 ! A17   L(3,1,6,2,-1)         180.0            estimate D2E/DX2                !
 ! A18   L(4,1,5,2,-1)         180.0            estimate D2E/DX2                !
 ! A19   L(2,1,9,3,-2)         180.0            estimate D2E/DX2                !
 ! A20   L(3,1,6,2,-2)         180.0            estimate D2E/DX2                !
 ! A21   L(4,1,5,2,-2)         180.0            estimate D2E/DX2                !
 ! D1    D(2,1,6,7)           -103.5217         estimate D2E/DX2                !
 ! D2    D(2,1,6,8)            136.4783         estimate D2E/DX2                !
 ! D3    D(4,1,6,7)            -13.5217         estimate D2E/DX2                !
 ! D4    D(4,1,6,8)           -133.5217         estimate D2E/DX2                !
 ! D5    D(5,1,6,7)            166.4783         estimate D2E/DX2                !
 ! D6    D(5,1,6,8)             46.4783         estimate D2E/DX2                !
 ! D7    D(9,1,6,7)             76.4783         estimate D2E/DX2                !
 ! D8    D(9,1,6,8)            -43.5217         estimate D2E/DX2                !
 --------------------------------------------------------------------------------
 Trust Radius=3.00D-01 FncErr=1.00D-07 GrdErr=1.00D-06
 Number of steps in this run=     47 maximum allowed number of steps=    100.
 GradGradGradGradGradGradGradGradGradGradGradGradGradGradGradGradGradGrad

                          Input orientation:                          
 ---------------------------------------------------------------------
 Center     Atomic      Atomic             Coordinates (Angstroms)
 Number     Number       Type             X           Y           Z
 ---------------------------------------------------------------------
      1         78           0       -0.319549    0.338346    0.000000
      2         35           0       -0.319549    0.338346   -2.430000
      3         35           0        1.670451    0.338346    0.000000
      4         35           0       -0.319549    2.768346    0.000000
      5         35           0       -0.319549   -1.651654    0.000000
      6          7           0       -2.309549    0.338346    0.000000
      7          8           0       -2.762882    1.585025    0.299800
      8          8           0       -2.762882   -0.544629    0.929755
      9         35           0       -0.319549    0.338346    2.430000
 ---------------------------------------------------------------------
                    Distance matrix (angstroms):
                    1          2          3          4          5
     1  Pt   0.000000
     2  Br   2.430000   0.000000
     3  Br   1.990000   3.140860   0.000000
     4  Br   2.430000   3.436539   3.140860   0.000000
     5  Br   1.990000   3.140860   2.814285   4.420000   0.000000
     6  N    1.990000   3.140860   3.980000   3.140860   2.814285
     7  O    2.759341   3.869870   4.615033   2.731301   4.066429
     8  O    2.759341   4.247055   4.615033   4.220204   2.838983
     9  Br   2.430000   4.860000   3.140860   3.436539   3.140860
                    6          7          8          9
     6  N    0.000000
     7  O    1.360000   0.000000
     8  O    1.360000   2.220871   0.000000
     9  Br   3.140860   3.473015   3.000042   0.000000
 Stoichiometry    Br5NO2Pt(2-)
 Framework group  C1[X(Br5NO2Pt)]
 Deg. of freedom    21
 Full point group                 C1      NOp   1
 Largest Abelian subgroup         C1      NOp   1
 Largest concise Abelian subgroup C1      NOp   1
                         Standard orientation:                         
 ---------------------------------------------------------------------
 Center     Atomic      Atomic             Coordinates (Angstroms)
 Number     Number       Type             X           Y           Z
 ---------------------------------------------------------------------
      1         78           0       -0.023202   -0.061984    0.070141
      2         35           0       -2.424206   -0.148299    0.434328
      3         35           0       -0.314290   -0.237734   -1.890593
      4         35           0       -0.140412    2.356982   -0.129282
      5         35           0        0.072784   -2.042947    0.233455
      6          7           0        0.267886    0.113767    2.030876
      7          8           0        0.570287    1.405471    2.330299
      8          8           0        1.295448   -0.692136    2.410662
      9         35           0        2.377801    0.024332   -0.294045
 ---------------------------------------------------------------------
 Rotational constants (GHZ):      0.3711473      0.3368008      0.2859452
 General basis read from cards:  (5D, 7F)
 ======================================================================================================
                                       Pseudopotential Parameters
 ======================================================================================================
  Center     Atomic      Valence      Angular      Power
  Number     Number     Electrons     Momentum     of R      Exponent        Coefficient   SO-Coeffient
 ======================================================================================================
    1         78           18
                                      G and up 
                                                     1      728.9394056       -0.16192680    0.00000000
                                                     2      320.6567800    -1320.28738520    0.00000000
                                                     2       52.8680174     -298.31781350    0.00000000
                                                     2       12.0280128      -87.58370650    0.00000000
                                                     2        3.5238913       -8.14932740    0.00000000
                                      S - G
                                                     0      409.4437358        2.73342180    0.00000000
                                                     1      274.5419231       59.70243290    0.00000000
                                                     2      127.5658570      891.45895500    0.00000000
                                                     2       32.9036631      368.44676560    0.00000000
                                                     2        5.0593880      238.02630900    0.00000000
                                                     2        4.1506556     -107.05564540    0.00000000
                                      P - G
                                                     0      466.1728892        1.88785680    0.00000000
                                                     1      120.7888259       76.01386290    0.00000000
                                                     2       36.4118791      343.55111160    0.00000000
                                                     2        5.6985408      119.49117860    0.00000000
                                      D - G
                                                     0      249.5650763        2.93436780    0.00000000
                                                     1      126.6678585       59.33065710    0.00000000
                                                     2       63.1430586      452.44451940    0.00000000
                                                     2       17.9059470      210.47694790    0.00000000
                                                     2        4.2239373       58.62541120    0.00000000
                                      F - G
                                                     0      121.8158799        3.95342530    0.00000000
                                                     1       60.8757030       53.85551820    0.00000000
                                                     2       31.4767147      247.43051330    0.00000000
                                                     2        9.8811751      127.81879760    0.00000000
                                                     2        2.7319874       15.37720460    0.00000000
    2         35
                                   No pseudopotential on this center.
    3         35
                                   No pseudopotential on this center.
    4         35
                                   No pseudopotential on this center.
    5         35
                                   No pseudopotential on this center.
    6          7
                                   No pseudopotential on this center.
    7          8
                                   No pseudopotential on this center.
    8          8
                                   No pseudopotential on this center.
    9         35
                                   No pseudopotential on this center.
 ======================================================================================================
 There are   244 symmetry adapted cartesian basis functions of A   symmetry.
 There are   224 symmetry adapted basis functions of A   symmetry.
   224 basis functions,   518 primitive gaussians,   244 cartesian basis functions
   109 alpha electrons      109 beta electrons
       nuclear repulsion energy      3423.7074092828 Hartrees.
 NAtoms=    9 NActive=    9 NUniq=    9 SFac= 1.00D+00 NAtFMM=   60 NAOKFM=F Big=F
 Integral buffers will be    131072 words long.
 Raffenetti 2 integral format.
 Two-electron integral symmetry is turned on.
 ------------------------------------------------------------------------------
 Polarizable Continuum Model (PCM)
 =================================
 Model                : PCM (using non-symmetric T matrix).
 Atomic radii         : UFF (Universal Force Field).
 Polarization charges : Total charges.
 Charge compensation  : None.
 Solution method      : On-the-fly selection.
 Cavity type          : Scaled VdW (van der Waals Surface) (Alpha=1.100).
 Cavity algorithm     : GePol (No added spheres)
                        Default sphere list used, NSphG=    9.
                        Lebedev-Laikov grids with approx.  5.0 points / Ang**2.
                        Smoothing algorithm: Karplus/York (Gamma=1.0000).
                        Polarization charges: spherical gaussians, with
                                              point-specific exponents (IZeta= 3).
                        Self-potential: point-specific (ISelfS= 7).
                        Self-field    : sphere-specific E.n sum rule (ISelfD= 2).
 1st derivatives      : Analytical E(r).r(x)/FMM algorithm (CHGder, D1EAlg=3).
                        Cavity 1st derivative terms included.
 Solvent              : Water, Eps=  78.355300 Eps(inf)=   1.777849
 ------------------------------------------------------------------------------
 Spheres list:
 ISph  on   Nord     Re0    Alpha      Xe            Ye            Ze
    1  Pt      1    1.3770  1.100     -0.023202     -0.061984      0.070141
    2  Br      2    2.0945  1.100     -2.424206     -0.148299      0.434328
    3  Br      3    2.0945  1.100     -0.314290     -0.237734     -1.890593
    4  Br      4    2.0945  1.100     -0.140412      2.356982     -0.129282
    5  Br      5    2.0945  1.100      0.072784     -2.042947      0.233455
    6   N      6    1.8300  1.100      0.267886      0.113767      2.030876
    7   O      7    1.7500  1.100      0.570287      1.405471      2.330299
    8   O      8    1.7500  1.100      1.295448     -0.692136      2.410662
    9  Br      9    2.0945  1.100      2.377801      0.024332     -0.294045
 ------------------------------------------------------------------------------
 One-electron integrals computed using PRISM.
   1 Symmetry operations used in ECPInt.
 ECPInt:  NShTT=    3741 NPrTT=   20753 LenC2=    3403 LenP2D=   12707.
 LDataN:  DoStor=T MaxTD1= 6 Len=  172
 NBasis=   224 RedAO= T EigKep=  1.70D-03  NBF=   224
 NBsUse=   224 1.00D-06 EigRej= -1.00D+00 NBFU=   224
 Defaulting to unpruned grid for atomic number  78.
 ExpMin= 2.90D-02 ExpMax= 1.13D+05 ExpMxC= 1.70D+04 IAcc=3 IRadAn=         5 AccDes= 0.00D+00
 Harris functional with IExCor=  402 and IRadAn=       5 diagonalized for initial guess.
 HarFok:  IExCor=  402 AccDes= 0.00D+00 IRadAn=         5 IDoV= 1 UseB2=F ITyADJ=14
 ICtDFT=  3500011 ScaDFX=  1.000000  1.000000  1.000000  1.000000
 Defaulting to unpruned grid for atomic number  78.
 Defaulting to unpruned grid for atomic number  78.
 Defaulting to unpruned grid for atomic number  78.
 Defaulting to unpruned grid for atomic number  78.
 Defaulting to unpruned grid for atomic number  78.
 Defaulting to unpruned grid for atomic number  78.
 Defaulting to unpruned grid for atomic number  78.
 Defaulting to unpruned grid for atomic number  78.
 FoFCou: FMM=F IPFlag=           0 FMFlag=      100000 FMFlg1=           0
         NFxFlg=           0 DoJE=T BraDBF=F KetDBF=T FulRan=T
         wScrn=  0.000000 ICntrl=     500 IOpCl=  0 I1Cent=   200000004 NGrid=           0
         NMat0=    1 NMatS0=      1 NMatT0=    0 NMatD0=    1 NMtDS0=    0 NMtDT0=    0
 Petite list used in FoFCou.
 Keep R1 ints in memory in canonical form, NReq=325086442.
 Requested convergence on RMS density matrix=1.00D-08 within 128 cycles.
 Requested convergence on MAX density matrix=1.00D-06.
 Requested convergence on             energy=1.00D-06.
 No special actions if energy rises.
 Defaulting to unpruned grid for atomic number  78.
 Defaulting to unpruned grid for atomic number  78.
 Defaulting to unpruned grid for atomic number  78.
 Defaulting to unpruned grid for atomic number  78.
 Defaulting to unpruned grid for atomic number  78.
 Defaulting to unpruned grid for atomic number  78.
 Defaulting to unpruned grid for atomic number  78.
 Defaulting to unpruned grid for atomic number  78.
 Inv3:  Mode=1 IEnd=     7310163.
 Iteration    1 A*A^-1 deviation from unit magnitude is 6.00D-15 for    173.
 Iteration    1 A*A^-1 deviation from orthogonality  is 3.63D-15 for   1101    841.
 Iteration    1 A^-1*A deviation from unit magnitude is 7.11D-15 for    234.
 Iteration    1 A^-1*A deviation from orthogonality  is 2.52D-14 for    650    568.
 EnCoef did     1 forward-backward iterations
 EnCoef did   100 forward-backward iterations
 EnCoef did     5 forward-backward iterations
 Error on total polarization charges =  0.01894
 SCF Done:  E(RB3LYP) =  -13193.5877227     A.U. after   18 cycles
            NFock= 18  Conv=0.66D-08     -V/T= 2.0073

 **********************************************************************

            Population analysis using the SCF density.

 **********************************************************************

 Orbital symmetries:
       Occupied  (A) (A) (A) (A) (A) (A) (A) (A) (A) (A) (A) (A)
                 (A) (A) (A) (A) (A) (A) (A) (A) (A) (A) (A) (A)
                 (A) (A) (A) (A) (A) (A) (A) (A) (A) (A) (A) (A)
                 (A) (A) (A) (A) (A) (A) (A) (A) (A) (A) (A) (A)
                 (A) (A) (A) (A) (A) (A) (A) (A) (A) (A) (A) (A)
                 (A) (A) (A) (A) (A) (A) (A) (A) (A) (A) (A) (A)
                 (A) (A) (A) (A) (A) (A) (A) (A) (A) (A) (A) (A)
                 (A) (A) (A) (A) (A) (A) (A) (A) (A) (A) (A) (A)
                 (A) (A) (A) (A) (A) (A) (A) (A) (A) (A) (A) (A)
                 (A)
       Virtual   (A) (A) (A) (A) (A) (A) (A) (A) (A) (A) (A) (A)
                 (A) (A) (A) (A) (A) (A) (A) (A) (A) (A) (A) (A)
                 (A) (A) (A) (A) (A) (A) (A) (A) (A) (A) (A) (A)
                 (A) (A) (A) (A) (A) (A) (A) (A) (A) (A) (A) (A)
                 (A) (A) (A) (A) (A) (A) (A) (A) (A) (A) (A) (A)
                 (A) (A) (A) (A) (A) (A) (A) (A) (A) (A) (A) (A)
                 (A) (A) (A) (A) (A) (A) (A) (A) (A) (A) (A) (A)
                 (A) (A) (A) (A) (A) (A) (A) (A) (A) (A) (A) (A)
                 (A) (A) (A) (A) (A) (A) (A) (A) (A) (A) (A) (A)
                 (A) (A) (A) (A) (A) (A) (A)
 The electronic state is 1-A.
 Alpha  occ. eigenvalues -- -482.74974-482.74907-482.74631-482.74578-482.71372
 Alpha  occ. eigenvalues --  -62.43525 -62.43200 -62.43090 -62.42757 -62.39578
 Alpha  occ. eigenvalues --  -56.26668 -56.26367 -56.26366 -56.26344 -56.26283
 Alpha  occ. eigenvalues --  -56.26044 -56.26030 -56.25982 -56.25979 -56.25954
 Alpha  occ. eigenvalues --  -56.25648 -56.25644 -56.22712 -56.22504 -56.22487
 Alpha  occ. eigenvalues --  -19.12090 -19.11958 -14.46165  -8.65829  -8.65518
 Alpha  occ. eigenvalues --   -8.64878  -8.64544  -8.61376  -6.49298  -6.49003
 Alpha  occ. eigenvalues --   -6.48096  -6.47835  -6.47829  -6.47775  -6.47539
 Alpha  occ. eigenvalues --   -6.47485  -6.47001  -6.46989  -6.46661  -6.46648
 Alpha  occ. eigenvalues --   -6.44415  -6.43616  -6.43567  -4.02705  -2.60875
 Alpha  occ. eigenvalues --   -2.60579  -2.60325  -2.60319  -2.60041  -2.59997
 Alpha  occ. eigenvalues --   -2.59546  -2.59240  -2.59230  -2.59223  -2.59166
 Alpha  occ. eigenvalues --   -2.59164  -2.58912  -2.58902  -2.58844  -2.58841
 Alpha  occ. eigenvalues --   -2.58370  -2.58370  -2.58026  -2.58025  -2.55912
 Alpha  occ. eigenvalues --   -2.55689  -2.55651  -2.55023  -2.55021  -2.25702
 Alpha  occ. eigenvalues --   -2.25217  -2.23619  -1.07023  -0.91073  -0.80923
 Alpha  occ. eigenvalues --   -0.76988  -0.73254  -0.72381  -0.69932  -0.62968
 Alpha  occ. eigenvalues --   -0.49065  -0.48085  -0.46268  -0.44250  -0.44095
 Alpha  occ. eigenvalues --   -0.42894  -0.41695  -0.40255  -0.38129  -0.31674
 Alpha  occ. eigenvalues --   -0.31169  -0.27328  -0.26276  -0.25516  -0.25410
 Alpha  occ. eigenvalues --   -0.24934  -0.24499  -0.24485  -0.23654  -0.22766
 Alpha  occ. eigenvalues --   -0.22627  -0.21967  -0.20769  -0.19329
 Alpha virt. eigenvalues --   -0.09899  -0.07631  -0.00177   0.05374   0.05813
 Alpha virt. eigenvalues --    0.06421   0.17225   0.20148   0.21459   0.23100
 Alpha virt. eigenvalues --    0.25467   0.28687   0.33125   0.34341   0.36346
 Alpha virt. eigenvalues --    0.38624   0.39891   0.41157   0.44654   0.48873
 Alpha virt. eigenvalues --    0.48921   0.50470   0.50708   0.51742   0.52063
 Alpha virt. eigenvalues --    0.53791   0.54938   0.55493   0.55726   0.56232
 Alpha virt. eigenvalues --    0.56590   0.56601   0.57061   0.57258   0.58642
 Alpha virt. eigenvalues --    0.59007   0.59663   0.61146   0.61894   0.62003
 Alpha virt. eigenvalues --    0.63174   0.65420   0.65674   0.68328   0.68573
 Alpha virt. eigenvalues --    0.70242   0.77308   0.80911   0.81691   0.85745
 Alpha virt. eigenvalues --    0.90469   0.92257   0.92869   0.93474   0.95573
 Alpha virt. eigenvalues --    0.97508   0.99534   1.01846   1.02464   1.05698
 Alpha virt. eigenvalues --    1.07748   1.08359   1.10431   1.11632   1.13119
 Alpha virt. eigenvalues --    1.17833   1.19957   1.20846   1.22107   1.23893
 Alpha virt. eigenvalues --    1.30010   1.40980   1.42277   1.48377   1.97836
 Alpha virt. eigenvalues --    2.00986   2.08765   2.32689   2.36058   2.67796
 Alpha virt. eigenvalues --    2.68549   2.69501   2.70785   2.77636   3.00312
 Alpha virt. eigenvalues --    3.03353   3.24050   3.38534   3.40058   3.42247
 Alpha virt. eigenvalues --    3.43028   3.44131   3.46031   3.46844   3.47174
 Alpha virt. eigenvalues --    3.48504   3.49515   3.50705   3.52491   3.54804
 Alpha virt. eigenvalues --    3.56765   3.57680   3.58018   3.59471   3.68445
 Alpha virt. eigenvalues --    3.70323   3.71216   3.71948   3.77323   3.78461
 Alpha virt. eigenvalues --    3.81006   3.82009   3.89506   3.90117  10.38671
          Condensed to atoms (all electrons):
               1          2          3          4          5          6
     1  Pt  18.324056   0.239761  -0.399882   0.252117  -0.513714   0.095706
     2  Br   0.239761  35.034510  -0.065434  -0.033187  -0.084593  -0.021455
     3  Br  -0.399882  -0.065434  36.223721  -0.045788  -0.185489  -0.021124
     4  Br   0.252117  -0.033187  -0.045788  35.112957  -0.020488  -0.003798
     5  Br  -0.513714  -0.084593  -0.185489  -0.020488  36.444797  -0.072448
     6  N    0.095706  -0.021455  -0.021124  -0.003798  -0.072448   6.644592
     7  O   -0.013587   0.000366   0.000586  -0.034423   0.002820   0.182008
     8  O   -0.030917   0.000536   0.000716   0.000507  -0.013669   0.189074
     9  Br   0.247664  -0.004576  -0.080868  -0.032445  -0.080707  -0.020256
               7          8          9
     1  Pt  -0.013587  -0.030917   0.247664
     2  Br   0.000366   0.000536  -0.004576
     3  Br   0.000586   0.000716  -0.080868
     4  Br  -0.034423   0.000507  -0.032445
     5  Br   0.002820  -0.013669  -0.080707
     6  N    0.182008   0.189074  -0.020256
     7  O    8.256831  -0.094540  -0.000053
     8  O   -0.094540   8.266144  -0.006684
     9  Br  -0.000053  -0.006684  35.028920
 Mulliken charges:
               1
     1  Pt  -0.201204
     2  Br  -0.065927
     3  Br  -0.426438
     4  Br  -0.195452
     5  Br  -0.476510
     6  N    0.027701
     7  O   -0.300009
     8  O   -0.311166
     9  Br  -0.050995
 Sum of Mulliken charges =  -2.00000
 Mulliken charges with hydrogens summed into heavy atoms:
               1
     1  Pt  -0.201204
     2  Br  -0.065927
     3  Br  -0.426438
     4  Br  -0.195452
     5  Br  -0.476510
     6  N    0.027701
     7  O   -0.300009
     8  O   -0.311166
     9  Br  -0.050995
 Electronic spatial extent (au):  <R**2>=           4086.1448
 Charge=             -2.0000 electrons
 Dipole moment (field-independent basis, Debye):
    X=             -1.9629    Y=             -2.7400    Z=             -3.6744  Tot=              4.9862
 Quadrupole moment (field-independent basis, Debye-Ang):
   XX=           -159.1548   YY=           -162.9113   ZZ=           -161.1183
   XY=              0.6224   XZ=             -5.7196   YZ=             -1.6095
 Traceless Quadrupole moment (field-independent basis, Debye-Ang):
   XX=              1.9067   YY=             -1.8498   ZZ=             -0.0568
   XY=              0.6224   XZ=             -5.7196   YZ=             -1.6095
 Octapole moment (field-independent basis, Debye-Ang**2):
  XXX=            -11.5024  YYY=            -30.1180  ZZZ=            -57.2160  XYY=             -3.8933
  XXY=             -0.9376  XXZ=            -17.9502  XZZ=            -21.8138  YZZ=             -8.5766
  YYZ=            -16.5613  XYZ=              0.5469
 Hexadecapole moment (field-independent basis, Debye-Ang**3):
 XXXX=          -1625.9514 YYYY=          -1474.3871 ZZZZ=          -1239.8562 XXXY=              2.1829
 XXXZ=            -27.0637 YYYX=              1.6473 YYYZ=            -13.7714 ZZZX=            -66.6443
 ZZZY=            -21.8864 XXYY=           -511.8903 XXZZ=           -486.4111 YYZZ=           -457.3617
 XXYZ=              1.0644 YYXZ=            -13.2717 ZZXY=              1.5977
 N-N= 3.423707409283D+03 E-N=-3.840873999146D+04  KE= 1.309803893196D+04
   1 Symmetry operations used in ECPInt.
 ECPInt:  NShTT=    3741 NPrTT=   20753 LenC2=    3403 LenP2D=   12707.
 LDataN:  DoStor=T MaxTD1= 7 Len=  274
 D1PCM: PCM CHGder 1st derivatives, ID1Alg=3 FixD1E=F DoIter=F DoCFld=F I1PDM=0.
 Calling FoFJK, ICntrl=      2127 FMM=F ISym2X=0 I1Cent= 0 IOpClX= 0 NMat=1 NMatS=1 NMatT=0.
 Defaulting to unpruned grid for atomic number  78.
 Defaulting to unpruned grid for atomic number  78.
 Defaulting to unpruned grid for atomic number  78.
 Defaulting to unpruned grid for atomic number  78.
 Defaulting to unpruned grid for atomic number  78.
 Defaulting to unpruned grid for atomic number  78.
 Defaulting to unpruned grid for atomic number  78.
 Defaulting to unpruned grid for atomic number  78.
 ***** Axes restored to original set *****
 -------------------------------------------------------------------
 Center     Atomic                   Forces (Hartrees/Bohr)
 Number     Number              X              Y              Z
 -------------------------------------------------------------------
      1       78          -0.260041977    0.285894482   -0.024988482
      2       35          -0.005047146    0.003936931   -0.047446388
      3       35           0.372210783    0.011900833    0.005336200
      4       35           0.009854400    0.065752180   -0.001474280
      5       35          -0.004094064   -0.378490364   -0.004115658
      6        7          -0.132090692    0.051827501    0.156719791
      7        8           0.008671051   -0.088529520   -0.049568624
      8        8           0.012786270    0.042794229   -0.082575350
      9       35          -0.002248626    0.004913728    0.048112790
 -------------------------------------------------------------------
 Cartesian Forces:  Max     0.378490364 RMS     0.136750477

 GradGradGradGradGradGradGradGradGradGradGradGradGradGradGradGradGradGrad
 Berny optimization.
 FormGI is forming the generalized inverse of G from B-inverse, IUseBI=4.
 Internal  Forces:  Max     0.378503255 RMS     0.094301433
 Search for a local minimum.
 Step number   1 out of a maximum of   47
 All quantities printed in internal units (Hartrees-Bohrs-Radians)
 Mixed Optimization -- RFO/linear search
 Second derivative matrix not updated -- first step.
 ITU=  0
     Eigenvalues ---    0.00230   0.04734   0.08487   0.09416   0.12615
     Eigenvalues ---    0.12615   0.12615   0.14009   0.16743   0.19509
     Eigenvalues ---    0.19509   0.19509   0.20378   0.25000   0.25000
     Eigenvalues ---    0.25000   0.25000   0.52948   0.52948   0.90956
     Eigenvalues ---    0.90956
 RFO step:  Lambda=-3.12306379D-01 EMin= 2.30000000D-03
 Linear search not attempted -- first point.
 Maximum step size (   0.300) exceeded in Quadratic search.
    -- Step size scaled by   0.533
 Iteration  1 RMS(Cart)=  0.06771890 RMS(Int)=  0.00126049
 Iteration  2 RMS(Cart)=  0.00146669 RMS(Int)=  0.00063809
 Iteration  3 RMS(Cart)=  0.00000349 RMS(Int)=  0.00063809
 Iteration  4 RMS(Cart)=  0.00000001 RMS(Int)=  0.00063809
 Variable       Old X    -DE/DX   Delta X   Delta X   Delta X     New X
                                 (Linear)    (Quad)   (Total)
    R1        4.59203   0.04745   0.00000   0.04982   0.04982   4.64185
    R2        3.76056   0.37221   0.00000   0.16226   0.16226   3.92282
    R3        4.59203   0.06574   0.00000   0.06901   0.06901   4.66105
    R4        3.76056   0.37850   0.00000   0.16501   0.16501   3.92556
    R5        3.76056   0.11062   0.00000   0.11418   0.11418   3.87473
    R6        4.59203   0.04811   0.00000   0.05050   0.05050   4.64254
    R7        2.57003  -0.09493   0.00000  -0.06007  -0.06007   2.50995
    R8        2.57003  -0.08851   0.00000  -0.05601  -0.05601   2.51402
    A1        1.57080   0.01082   0.00000   0.01227   0.01227   1.58306
    A2        1.57080  -0.00414   0.00000  -0.00574  -0.00568   1.56511
    A3        1.57080   0.00042   0.00000   0.00087   0.00084   1.57164
    A4        1.57080  -0.00412   0.00000  -0.00413  -0.00415   1.56665
    A5        1.57080  -0.02251   0.00000  -0.02312  -0.02309   1.54771
    A6        1.57080   0.01503   0.00000   0.01431   0.01432   1.58512
    A7        1.57080  -0.00244   0.00000  -0.00208  -0.00210   1.56869
    A8        1.57080   0.01551   0.00000   0.01462   0.01462   1.58542
    A9        1.57080  -0.00262   0.00000  -0.00331  -0.00323   1.56757
   A10        1.57080  -0.00803   0.00000  -0.00581  -0.00582   1.56498
   A11        1.57080   0.00634   0.00000   0.00819   0.00816   1.57896
   A12        1.57080  -0.00427   0.00000  -0.00606  -0.00610   1.56470
   A13        1.91063   0.05498   0.00000   0.05767   0.05609   1.96672
   A14        1.91063   0.03804   0.00000   0.04162   0.04001   1.95065
   A15        1.91063  -0.01512   0.00000  -0.00316  -0.00594   1.90470
   A16        3.14159   0.00838   0.00000   0.01019   0.01017   3.15176
   A17        3.14159   0.00670   0.00000   0.00814   0.00812   3.14972
   A18        3.14159  -0.00372   0.00000  -0.00487  -0.00484   3.13675
   A19        3.14159  -0.00675   0.00000  -0.00906  -0.00915   3.13244
   A20        3.14159   0.00700   0.00000   0.00850   0.00851   3.15011
   A21        3.14159  -0.00748   0.00000  -0.00880  -0.00882   3.13277
    D1       -1.80679   0.02256   0.00000   0.03326   0.03379  -1.77301
    D2        2.38200  -0.01588   0.00000  -0.02368  -0.02420   2.35779
    D3       -0.23600   0.01843   0.00000   0.02752   0.02804  -0.20796
    D4       -2.33039  -0.02001   0.00000  -0.02942  -0.02995  -2.36034
    D5        2.90559   0.02215   0.00000   0.03239   0.03292   2.93852
    D6        0.81120  -0.01630   0.00000  -0.02455  -0.02507   0.78613
    D7        1.33480   0.01581   0.00000   0.02420   0.02472   1.35952
    D8       -0.75960  -0.02263   0.00000  -0.03274  -0.03327  -0.79287
         Item               Value     Threshold  Converged?
 Maximum Force            0.378503     0.000450     NO 
 RMS     Force            0.094301     0.000300     NO 
 Maximum Displacement     0.200153     0.001800     NO 
 RMS     Displacement     0.067025     0.001200     NO 
 Predicted change in Energy=-1.371338D-01
 GradGradGradGradGradGradGradGradGradGradGradGradGradGradGradGradGradGrad

                          Input orientation:                          
 ---------------------------------------------------------------------
 Center     Atomic      Atomic             Coordinates (Angstroms)
 Number     Number       Type             X           Y           Z
 ---------------------------------------------------------------------
      1         78           0       -0.299434    0.343242    0.004621
      2         35           0       -0.338140    0.353394   -2.451414
      3         35           0        1.776367    0.357910   -0.002563
      4         35           0       -0.259929    2.809442    0.000171
      5         35           0       -0.314536   -1.734010   -0.001982
      6          7           0       -2.349713    0.346140    0.028445
      7          8           0       -2.857303    1.546330    0.285427
      8          8           0       -2.834067   -0.529024    0.905573
      9         35           0       -0.285852    0.355393    2.461279
 ---------------------------------------------------------------------
                    Distance matrix (angstroms):
                    1          2          3          4          5
     1  Pt   0.000000
     2  Br   2.456361   0.000000
     3  Br   2.075866   3.235434   0.000000
     4  Br   2.466520   3.471104   3.186930   0.000000
     5  Br   2.077318   3.218312   2.957703   4.543781   0.000000
     6  N    2.050419   3.193145   4.126213   3.230457   2.910309
     7  O    2.840592   3.906351   4.792304   2.902270   4.160397
     8  O    2.827884   4.275240   4.781994   4.311762   2.936611
     9  Br   2.456725   4.912971   3.212985   3.475641   3.230183
                    6          7          8          9
     6  N    0.000000
     7  O    1.328210   0.000000
     8  O    1.330363   2.166152   0.000000
     9  Br   3.190343   3.572817   3.113810   0.000000
 Stoichiometry    Br5NO2Pt(2-)
 Framework group  C1[X(Br5NO2Pt)]
 Deg. of freedom    21
 Full point group                 C1      NOp   1
 Largest Abelian subgroup         C1      NOp   1
 Largest concise Abelian subgroup C1      NOp   1
                         Standard orientation:                         
 ---------------------------------------------------------------------
 Center     Atomic      Atomic             Coordinates (Angstroms)
 Number     Number       Type             X           Y           Z
 ---------------------------------------------------------------------
      1         78           0       -0.019211   -0.063042    0.069370
      2         35           0       -2.441640   -0.205050    0.450657
      3         35           0       -0.312716   -0.130513   -1.984534
      4         35           0       -0.195304    2.394583   -0.043754
      5         35           0        0.116382   -2.134433    0.148114
      6          7           0        0.286043    0.021985    2.095156
      7          8           0        0.528874    1.254936    2.525282
      8          8           0        1.278424   -0.776860    2.478422
      9         35           0        2.405784    0.102235   -0.287814
 ---------------------------------------------------------------------
 Rotational constants (GHZ):      0.3484097      0.3222094      0.2770234
 Basis read from rwf:  (5D, 7F)
 Pseudo-potential data read from rwf file.
 There are   244 symmetry adapted cartesian basis functions of A   symmetry.
 There are   224 symmetry adapted basis functions of A   symmetry.
   224 basis functions,   518 primitive gaussians,   244 cartesian basis functions
   109 alpha electrons      109 beta electrons
       nuclear repulsion energy      3341.2314331982 Hartrees.
 NAtoms=    9 NActive=    9 NUniq=    9 SFac= 1.00D+00 NAtFMM=   60 NAOKFM=F Big=F
 Integral buffers will be    131072 words long.
 Raffenetti 2 integral format.
 Two-electron integral symmetry is turned on.
 ------------------------------------------------------------------------------
 Polarizable Continuum Model (PCM)
 =================================
 Model                : PCM (using non-symmetric T matrix).
 Atomic radii         : UFF (Universal Force Field).
 Polarization charges : Total charges.
 Charge compensation  : None.
 Solution method      : On-the-fly selection.
 Cavity type          : Scaled VdW (van der Waals Surface) (Alpha=1.100).
 Cavity algorithm     : GePol (No added spheres)
                        Default sphere list used, NSphG=    9.
                        Lebedev-Laikov grids with approx.  5.0 points / Ang**2.
                        Smoothing algorithm: Karplus/York (Gamma=1.0000).
                        Polarization charges: spherical gaussians, with
                                              point-specific exponents (IZeta= 3).
                        Self-potential: point-specific (ISelfS= 7).
                        Self-field    : sphere-specific E.n sum rule (ISelfD= 2).
 1st derivatives      : Analytical E(r).r(x)/FMM algorithm (CHGder, D1EAlg=3).
                        Cavity 1st derivative terms included.
 Solvent              : Water, Eps=  78.355300 Eps(inf)=   1.777849
 ------------------------------------------------------------------------------
 Spheres list:
 ISph  on   Nord     Re0    Alpha      Xe            Ye            Ze
    1  Pt      1    1.3770  1.100     -0.019211     -0.063042      0.069370
    2  Br      2    2.0945  1.100     -2.441640     -0.205050      0.450657
    3  Br      3    2.0945  1.100     -0.312716     -0.130513     -1.984534
    4  Br      4    2.0945  1.100     -0.195304      2.394583     -0.043754
    5  Br      5    2.0945  1.100      0.116382     -2.134433      0.148114
    6   N      6    1.8300  1.100      0.286043      0.021985      2.095156
    7   O      7    1.7500  1.100      0.528874      1.254936      2.525282
    8   O      8    1.7500  1.100      1.278424     -0.776860      2.478422
    9  Br      9    2.0945  1.100      2.405784      0.102235     -0.287814
 ------------------------------------------------------------------------------
 One-electron integrals computed using PRISM.
   1 Symmetry operations used in ECPInt.
 ECPInt:  NShTT=    3741 NPrTT=   20753 LenC2=    3382 LenP2D=   12578.
 LDataN:  DoStor=T MaxTD1= 6 Len=  172
 NBasis=   224 RedAO= T EigKep=  2.25D-03  NBF=   224
 NBsUse=   224 1.00D-06 EigRej= -1.00D+00 NBFU=   224
 Defaulting to unpruned grid for atomic number  78.
 Initial guess from the checkpoint file:  "/home/scr/diego/Gau-22694.chk"
 B after Tr=     0.000000    0.000000    0.000000
         Rot=    0.999653   -0.024370    0.001515   -0.009932 Ang=  -3.02 deg.
 ExpMin= 2.90D-02 ExpMax= 1.13D+05 ExpMxC= 1.70D+04 IAcc=3 IRadAn=         5 AccDes= 0.00D+00
 Harris functional with IExCor=  402 and IRadAn=       5 diagonalized for initial guess.
 HarFok:  IExCor=  402 AccDes= 0.00D+00 IRadAn=         5 IDoV= 1 UseB2=F ITyADJ=14
 ICtDFT=  3500011 ScaDFX=  1.000000  1.000000  1.000000  1.000000
 Defaulting to unpruned grid for atomic number  78.
 Defaulting to unpruned grid for atomic number  78.
 Defaulting to unpruned grid for atomic number  78.
 Defaulting to unpruned grid for atomic number  78.
 Defaulting to unpruned grid for atomic number  78.
 Defaulting to unpruned grid for atomic number  78.
 Defaulting to unpruned grid for atomic number  78.
 Defaulting to unpruned grid for atomic number  78.
 FoFCou: FMM=F IPFlag=           0 FMFlag=      100000 FMFlg1=           0
         NFxFlg=           0 DoJE=T BraDBF=F KetDBF=T FulRan=T
         wScrn=  0.000000 ICntrl=     500 IOpCl=  0 I1Cent=   200000004 NGrid=           0
         NMat0=    1 NMatS0=      1 NMatT0=    0 NMatD0=    1 NMtDS0=    0 NMtDT0=    0
 Petite list used in FoFCou.
 Keep R1 ints in memory in canonical form, NReq=325086442.
 Requested convergence on RMS density matrix=1.00D-08 within 128 cycles.
 Requested convergence on MAX density matrix=1.00D-06.
 Requested convergence on             energy=1.00D-06.
 No special actions if energy rises.
 Defaulting to unpruned grid for atomic number  78.
 Defaulting to unpruned grid for atomic number  78.
 Defaulting to unpruned grid for atomic number  78.
 Defaulting to unpruned grid for atomic number  78.
 Defaulting to unpruned grid for atomic number  78.
 Defaulting to unpruned grid for atomic number  78.
 Defaulting to unpruned grid for atomic number  78.
 Defaulting to unpruned grid for atomic number  78.
 Inv3:  Mode=1 IEnd=     7660812.
 Iteration    1 A*A^-1 deviation from unit magnitude is 6.00D-15 for    125.
 Iteration    1 A*A^-1 deviation from orthogonality  is 2.76D-15 for    318     17.
 Iteration    1 A^-1*A deviation from unit magnitude is 5.55D-15 for   1034.
 Iteration    1 A^-1*A deviation from orthogonality  is 6.83D-14 for   1250   1194.
 Error on total polarization charges =  0.01816
 SCF Done:  E(RB3LYP) =  -13193.7256342     A.U. after   15 cycles
            NFock= 15  Conv=0.23D-08     -V/T= 2.0074
   1 Symmetry operations used in ECPInt.
 ECPInt:  NShTT=    3741 NPrTT=   20753 LenC2=    3382 LenP2D=   12578.
 LDataN:  DoStor=T MaxTD1= 7 Len=  274
 D1PCM: PCM CHGder 1st derivatives, ID1Alg=3 FixD1E=F DoIter=F DoCFld=F I1PDM=0.
 Calling FoFJK, ICntrl=      2127 FMM=F ISym2X=0 I1Cent= 0 IOpClX= 0 NMat=1 NMatS=1 NMatT=0.
 Defaulting to unpruned grid for atomic number  78.
 Defaulting to unpruned grid for atomic number  78.
 Defaulting to unpruned grid for atomic number  78.
 Defaulting to unpruned grid for atomic number  78.
 Defaulting to unpruned grid for atomic number  78.
 Defaulting to unpruned grid for atomic number  78.
 Defaulting to unpruned grid for atomic number  78.
 Defaulting to unpruned grid for atomic number  78.
 ***** Axes restored to original set *****
 -------------------------------------------------------------------
 Center     Atomic                   Forces (Hartrees/Bohr)
 Number     Number              X              Y              Z
 -------------------------------------------------------------------
      1       78          -0.175214533    0.188738619   -0.019678996
      2       35          -0.003505605    0.002692653   -0.034996858
      3       35           0.246691045    0.005613274    0.002332632
      4       35           0.004227055    0.045661618   -0.000925649
      5       35          -0.003035421   -0.251131803   -0.003110280
      6        7          -0.110015791    0.045558176    0.146045491
      7        8           0.021049426   -0.066982156   -0.050506257
      8        8           0.021307806    0.026570160   -0.074742724
      9       35          -0.001503981    0.003279458    0.035582641
 -------------------------------------------------------------------
 Cartesian Forces:  Max     0.251131803 RMS     0.095267979

 GradGradGradGradGradGradGradGradGradGradGradGradGradGradGradGradGradGrad
 Berny optimization.
 Using GEDIIS/GDIIS optimizer.
 FormGI is forming the generalized inverse of G from B-inverse, IUseBI=4.
 Internal  Forces:  Max     0.251175009 RMS     0.063487286
 Search for a local minimum.
 Step number   2 out of a maximum of   47
 All quantities printed in internal units (Hartrees-Bohrs-Radians)
 Mixed Optimization -- RFO/linear search
 Update second derivatives using D2CorX and points    1    2
 DE= -1.38D-01 DEPred=-1.37D-01 R= 1.01D+00
 TightC=F SS=  1.41D+00  RLast= 3.11D-01 DXNew= 5.0454D-01 9.3188D-01
 Trust test= 1.01D+00 RLast= 3.11D-01 DXMaxT set to 5.05D-01
 ITU=  1  0
 Use linear search instead of GDIIS.
 Linear search step of   0.599 exceeds DXMaxT=   0.505 but not scaled.
 Quartic linear search produced a step of  2.00000.
 Iteration  1 RMS(Cart)=  0.11034492 RMS(Int)=  0.03082927
 Iteration  2 RMS(Cart)=  0.02933660 RMS(Int)=  0.00344497
 Iteration  3 RMS(Cart)=  0.00006052 RMS(Int)=  0.00344465
 Iteration  4 RMS(Cart)=  0.00000058 RMS(Int)=  0.00344465
 Variable       Old X    -DE/DX   Delta X   Delta X   Delta X     New X
                                 (Linear)    (Quad)   (Total)
    R1        4.64185   0.03506   0.09963   0.00000   0.09963   4.74148
    R2        3.92282   0.24671   0.32452   0.00000   0.32452   4.24734
    R3        4.66105   0.04571   0.13803   0.00000   0.13803   4.79908
    R4        3.92556   0.25118   0.33001   0.00000   0.33001   4.25558
    R5        3.87473   0.06789   0.22835   0.00000   0.22835   4.10308
    R6        4.64254   0.03558   0.10101   0.00000   0.10101   4.74354
    R7        2.50995  -0.07829  -0.12015   0.00000  -0.12015   2.38981
    R8        2.51402  -0.07454  -0.11201   0.00000  -0.11201   2.40201
    A1        1.58306   0.00656   0.02453   0.00000   0.02452   1.60759
    A2        1.56511  -0.00256  -0.01137   0.00000  -0.01099   1.55412
    A3        1.57164   0.00043   0.00168   0.00000   0.00148   1.57312
    A4        1.56665  -0.00188  -0.00829   0.00000  -0.00840   1.55825
    A5        1.54771  -0.00788  -0.04618   0.00000  -0.04600   1.50171
    A6        1.58512   0.00497   0.02865   0.00000   0.02872   1.61384
    A7        1.56869  -0.00115  -0.00420   0.00000  -0.00433   1.56436
    A8        1.58542   0.00590   0.02925   0.00000   0.02929   1.61471
    A9        1.56757  -0.00168  -0.00646   0.00000  -0.00594   1.56163
   A10        1.56498  -0.00295  -0.01164   0.00000  -0.01169   1.55329
   A11        1.57896   0.00389   0.01633   0.00000   0.01620   1.59516
   A12        1.56470  -0.00358  -0.01219   0.00000  -0.01242   1.55228
   A13        1.96672   0.02552   0.11217   0.00000   0.10237   2.06909
   A14        1.95065   0.01760   0.08003   0.00000   0.06997   2.02062
   A15        1.90470   0.00456  -0.01187   0.00000  -0.02603   1.87867
   A16        3.15176   0.00541   0.02033   0.00000   0.02019   3.17195
   A17        3.14972   0.00468   0.01624   0.00000   0.01613   3.16584
   A18        3.13675  -0.00213  -0.00969   0.00000  -0.00951   3.12723
   A19        3.13244  -0.00444  -0.01830   0.00000  -0.01887   3.11358
   A20        3.15011   0.00203   0.01703   0.00000   0.01711   3.16722
   A21        3.13277  -0.00297  -0.01765   0.00000  -0.01777   3.11500
    D1       -1.77301   0.02153   0.06758   0.00000   0.06982  -1.70319
    D2        2.35779  -0.01711  -0.04841   0.00000  -0.05065   2.30714
    D3       -0.20796   0.01892   0.05609   0.00000   0.05832  -0.14964
    D4       -2.36034  -0.01972  -0.05990   0.00000  -0.06215  -2.42249
    D5        2.93852   0.02108   0.06585   0.00000   0.06814   3.00666
    D6        0.78613  -0.01756  -0.05014   0.00000  -0.05233   0.73380
    D7        1.35952   0.01716   0.04945   0.00000   0.05165   1.41117
    D8       -0.79287  -0.02149  -0.06654   0.00000  -0.06882  -0.86169
         Item               Value     Threshold  Converged?
 Maximum Force            0.251175     0.000450     NO 
 RMS     Force            0.063487     0.000300     NO 
 Maximum Displacement     0.392229     0.001800     NO 
 RMS     Displacement     0.129336     0.001200     NO 
 Predicted change in Energy=-1.162162D-01
 GradGradGradGradGradGradGradGradGradGradGradGradGradGradGradGradGradGrad

                          Input orientation:                          
 ---------------------------------------------------------------------
 Center     Atomic      Atomic             Coordinates (Angstroms)
 Number     Number       Type             X           Y           Z
 ---------------------------------------------------------------------
      1         78           0       -0.263076    0.352966    0.012749
      2         35           0       -0.375449    0.384360   -2.493621
      3         35           0        1.983926    0.401670   -0.004623
      4         35           0       -0.142828    2.889629   -0.003266
      5         35           0       -0.311374   -1.898374   -0.008056
      6          7           0       -2.433186    0.360857    0.082884
      7          8           0       -3.028094    1.462263    0.262549
      8          8           0       -2.964197   -0.494749    0.858533
      9         35           0       -0.228329    0.390195    2.522407
 ---------------------------------------------------------------------
                    Distance matrix (angstroms):
                    1          2          3          4          5
     1  Pt   0.000000
     2  Br   2.509084   0.000000
     3  Br   2.247597   3.429587   0.000000
     4  Br   2.539561   3.540106   3.273076   0.000000
     5  Br   2.251954   3.375354   3.249403   4.790970   0.000000
     6  N    2.171257   3.297455   4.418167   3.412894   3.100722
     7  O    2.989694   3.974277   5.129970   3.229983   4.329859
     8  O    2.954662   4.325666   5.102208   4.489636   3.123877
     9  Br   2.510175   5.018189   3.358583   3.554364   3.412870
                    6          7          8          9
     6  N    0.000000
     7  O    1.264631   0.000000
     8  O    1.271089   2.046748   0.000000
     9  Br   3.288393   3.754328   3.322134   0.000000
 Stoichiometry    Br5NO2Pt(2-)
 Framework group  C1[X(Br5NO2Pt)]
 Deg. of freedom    21
 Full point group                 C1      NOp   1
 Largest Abelian subgroup         C1      NOp   1
 Largest concise Abelian subgroup C1      NOp   1
                         Standard orientation:                         
 ---------------------------------------------------------------------
 Center     Atomic      Atomic             Coordinates (Angstroms)
 Number     Number       Type             X           Y           Z
 ---------------------------------------------------------------------
      1         78           0       -0.009029   -0.068769    0.066259
      2         35           0       -2.458547   -0.444588    0.458852
      3         35           0       -0.318110    0.187579   -2.145176
      4         35           0       -0.409408    2.433409    0.234096
      5         35           0        0.304547   -2.289547   -0.136505
      6          7           0        0.333830   -0.253922    2.202266
      7          8           0        0.425156    0.801176    2.893440
      8          8           0        1.286821   -1.022267    2.544493
      9         35           0        2.443565    0.367724   -0.242341
 ---------------------------------------------------------------------
 Rotational constants (GHZ):      0.3091789      0.2966008      0.2595775
 Basis read from rwf:  (5D, 7F)
 Pseudo-potential data read from rwf file.
 There are   244 symmetry adapted cartesian basis functions of A   symmetry.
 There are   224 symmetry adapted basis functions of A   symmetry.
   224 basis functions,   518 primitive gaussians,   244 cartesian basis functions
   109 alpha electrons      109 beta electrons
       nuclear repulsion energy      3192.0912899694 Hartrees.
 NAtoms=    9 NActive=    9 NUniq=    9 SFac= 1.00D+00 NAtFMM=   60 NAOKFM=F Big=F
 Integral buffers will be    131072 words long.
 Raffenetti 2 integral format.
 Two-electron integral symmetry is turned on.
 ------------------------------------------------------------------------------
 Polarizable Continuum Model (PCM)
 =================================
 Model                : PCM (using non-symmetric T matrix).
 Atomic radii         : UFF (Universal Force Field).
 Polarization charges : Total charges.
 Charge compensation  : None.
 Solution method      : On-the-fly selection.
 Cavity type          : Scaled VdW (van der Waals Surface) (Alpha=1.100).
 Cavity algorithm     : GePol (No added spheres)
                        Default sphere list used, NSphG=    9.
                        Lebedev-Laikov grids with approx.  5.0 points / Ang**2.
                        Smoothing algorithm: Karplus/York (Gamma=1.0000).
                        Polarization charges: spherical gaussians, with
                                              point-specific exponents (IZeta= 3).
                        Self-potential: point-specific (ISelfS= 7).
                        Self-field    : sphere-specific E.n sum rule (ISelfD= 2).
 1st derivatives      : Analytical E(r).r(x)/FMM algorithm (CHGder, D1EAlg=3).
                        Cavity 1st derivative terms included.
 Solvent              : Water, Eps=  78.355300 Eps(inf)=   1.777849
 ------------------------------------------------------------------------------
 Spheres list:
 ISph  on   Nord     Re0    Alpha      Xe            Ye            Ze
    1  Pt      1    1.3770  1.100     -0.009029     -0.068769      0.066259
    2  Br      2    2.0945  1.100     -2.458547     -0.444588      0.458852
    3  Br      3    2.0945  1.100     -0.318110      0.187579     -2.145176
    4  Br      4    2.0945  1.100     -0.409408      2.433409      0.234096
    5  Br      5    2.0945  1.100      0.304547     -2.289547     -0.136505
    6   N      6    1.8300  1.100      0.333830     -0.253922      2.202266
    7   O      7    1.7500  1.100      0.425156      0.801176      2.893440
    8   O      8    1.7500  1.100      1.286821     -1.022267      2.544493
    9  Br      9    2.0945  1.100      2.443565      0.367724     -0.242341
 ------------------------------------------------------------------------------
 One-electron integrals computed using PRISM.
   1 Symmetry operations used in ECPInt.
 ECPInt:  NShTT=    3741 NPrTT=   20753 LenC2=    3338 LenP2D=   12286.
 LDataN:  DoStor=T MaxTD1= 6 Len=  172
 NBasis=   224 RedAO= T EigKep=  3.23D-03  NBF=   224
 NBsUse=   224 1.00D-06 EigRej= -1.00D+00 NBFU=   224
 Defaulting to unpruned grid for atomic number  78.
 Initial guess from the checkpoint file:  "/home/scr/diego/Gau-22694.chk"
 B after Tr=     0.000000    0.000000    0.000000
         Rot=    0.996830   -0.068910    0.002907   -0.039666 Ang=  -9.13 deg.
 ExpMin= 2.90D-02 ExpMax= 1.13D+05 ExpMxC= 1.70D+04 IAcc=3 IRadAn=         5 AccDes= 0.00D+00
 Harris functional with IExCor=  402 and IRadAn=       5 diagonalized for initial guess.
 HarFok:  IExCor=  402 AccDes= 0.00D+00 IRadAn=         5 IDoV= 1 UseB2=F ITyADJ=14
 ICtDFT=  3500011 ScaDFX=  1.000000  1.000000  1.000000  1.000000
 Defaulting to unpruned grid for atomic number  78.
 Defaulting to unpruned grid for atomic number  78.
 Defaulting to unpruned grid for atomic number  78.
 Defaulting to unpruned grid for atomic number  78.
 Defaulting to unpruned grid for atomic number  78.
 Defaulting to unpruned grid for atomic number  78.
 Defaulting to unpruned grid for atomic number  78.
 Defaulting to unpruned grid for atomic number  78.
 FoFCou: FMM=F IPFlag=           0 FMFlag=      100000 FMFlg1=           0
         NFxFlg=           0 DoJE=T BraDBF=F KetDBF=T FulRan=T
         wScrn=  0.000000 ICntrl=     500 IOpCl=  0 I1Cent=   200000004 NGrid=           0
         NMat0=    1 NMatS0=      1 NMatT0=    0 NMatD0=    1 NMtDS0=    0 NMtDT0=    0
 Petite list used in FoFCou.
 Keep R1 ints in memory in canonical form, NReq=325086442.
 Requested convergence on RMS density matrix=1.00D-08 within 128 cycles.
 Requested convergence on MAX density matrix=1.00D-06.
 Requested convergence on             energy=1.00D-06.
 No special actions if energy rises.
 Defaulting to unpruned grid for atomic number  78.
 Defaulting to unpruned grid for atomic number  78.
 Defaulting to unpruned grid for atomic number  78.
 Defaulting to unpruned grid for atomic number  78.
 Defaulting to unpruned grid for atomic number  78.
 Defaulting to unpruned grid for atomic number  78.
 Defaulting to unpruned grid for atomic number  78.
 Defaulting to unpruned grid for atomic number  78.
 Inv3:  Mode=1 IEnd=     8517675.
 Iteration    1 A*A^-1 deviation from unit magnitude is 7.11D-15 for    354.
 Iteration    1 A*A^-1 deviation from orthogonality  is 4.08D-15 for   1091    484.
 Iteration    1 A^-1*A deviation from unit magnitude is 7.11D-15 for    268.
 Iteration    1 A^-1*A deviation from orthogonality  is 1.57D-14 for    763    720.
 Error on total polarization charges =  0.01714
 SCF Done:  E(RB3LYP) =  -13193.8727200     A.U. after   14 cycles
            NFock= 14  Conv=0.93D-08     -V/T= 2.0075
   1 Symmetry operations used in ECPInt.
 ECPInt:  NShTT=    3741 NPrTT=   20753 LenC2=    3338 LenP2D=   12286.
 LDataN:  DoStor=T MaxTD1= 7 Len=  274
 D1PCM: PCM CHGder 1st derivatives, ID1Alg=3 FixD1E=F DoIter=F DoCFld=F I1PDM=0.
 Calling FoFJK, ICntrl=      2127 FMM=F ISym2X=0 I1Cent= 0 IOpClX= 0 NMat=1 NMatS=1 NMatT=0.
 Defaulting to unpruned grid for atomic number  78.
 Defaulting to unpruned grid for atomic number  78.
 Defaulting to unpruned grid for atomic number  78.
 Defaulting to unpruned grid for atomic number  78.
 Defaulting to unpruned grid for atomic number  78.
 Defaulting to unpruned grid for atomic number  78.
 Defaulting to unpruned grid for atomic number  78.
 Defaulting to unpruned grid for atomic number  78.
 ***** Axes restored to original set *****
 -------------------------------------------------------------------
 Center     Atomic                   Forces (Hartrees/Bohr)
 Number     Number              X              Y              Z
 -------------------------------------------------------------------
      1       78          -0.079710954    0.080774529   -0.012836799
      2       35          -0.001475091    0.000565329   -0.015200103
      3       35           0.099647182   -0.001506182   -0.000243480
      4       35          -0.002424409    0.016621965   -0.000181639
      5       35          -0.000672046   -0.100631177   -0.001244408
      6        7          -0.074058764    0.027401425    0.112897096
      7        8           0.029889226    0.002267590   -0.053620582
      8        8           0.029912504   -0.026062181   -0.044809905
      9       35          -0.001107647    0.000568702    0.015239820
 -------------------------------------------------------------------
 Cartesian Forces:  Max     0.112897096 RMS     0.047215071

 GradGradGradGradGradGradGradGradGradGradGradGradGradGradGradGradGradGrad
 Berny optimization.
 Using GEDIIS/GDIIS optimizer.
 FormGI is forming the generalized inverse of G from B-inverse, IUseBI=4.
 Internal  Forces:  Max     0.100640446 RMS     0.027842981
 Search for a local minimum.
 Step number   3 out of a maximum of   47
 All quantities printed in internal units (Hartrees-Bohrs-Radians)
 Mixed Optimization -- RFO/linear search
 Update second derivatives using D2CorX and points    2    3
 ITU=  0  1  0
 Use linear search instead of GDIIS.
 Linear search step of   0.661 exceeds DXMaxT=   0.505 but not scaled.
 Quartic linear search produced a step of  1.10793.
 Iteration  1 RMS(Cart)=  0.10905767 RMS(Int)=  0.04000743
 Iteration  2 RMS(Cart)=  0.03931645 RMS(Int)=  0.00433524
 Iteration  3 RMS(Cart)=  0.00007200 RMS(Int)=  0.00433490
 Iteration  4 RMS(Cart)=  0.00000049 RMS(Int)=  0.00433490
 Variable       Old X    -DE/DX   Delta X   Delta X   Delta X     New X
                                 (Linear)    (Quad)   (Total)
    R1        4.74148   0.01524   0.11039   0.00000   0.11039   4.85187
    R2        4.24734   0.09959   0.35955   0.00000   0.35955   4.60689
    R3        4.79908   0.01648   0.15292   0.00000   0.15292   4.95200
    R4        4.25558   0.10064   0.36563   0.00000   0.36563   4.62121
    R5        4.10308   0.01474   0.25300   0.00000   0.25300   4.35608
    R6        4.74354   0.01524   0.11191   0.00000   0.11191   4.85545
    R7        2.38981  -0.01968  -0.13311   0.00000  -0.13311   2.25669
    R8        2.40201  -0.02234  -0.12410   0.00000  -0.12410   2.27791
    A1        1.60759   0.00152   0.02717   0.00000   0.02714   1.63473
    A2        1.55412  -0.00047  -0.01218   0.00000  -0.01156   1.54256
    A3        1.57312   0.00015   0.00164   0.00000   0.00132   1.57443
    A4        1.55825   0.00050  -0.00930   0.00000  -0.00946   1.54880
    A5        1.50171   0.00772  -0.05096   0.00000  -0.05064   1.45107
    A6        1.61384  -0.00546   0.03182   0.00000   0.03192   1.64577
    A7        1.56436   0.00101  -0.00480   0.00000  -0.00501   1.55936
    A8        1.61471  -0.00515   0.03245   0.00000   0.03252   1.64723
    A9        1.56163  -0.00017  -0.00658   0.00000  -0.00572   1.55591
   A10        1.55329   0.00292  -0.01295   0.00000  -0.01303   1.54026
   A11        1.59516   0.00048   0.01795   0.00000   0.01773   1.61289
   A12        1.55228  -0.00298  -0.01376   0.00000  -0.01410   1.53818
   A13        2.06909  -0.02319   0.11342   0.00000   0.09995   2.16904
   A14        2.02062  -0.01963   0.07752   0.00000   0.06368   2.08430
   A15        1.87867   0.05380  -0.02884   0.00000  -0.04571   1.83296
   A16        3.17195   0.00253   0.02237   0.00000   0.02213   3.19408
   A17        3.16584   0.00203   0.01787   0.00000   0.01768   3.18352
   A18        3.12723  -0.00032  -0.01054   0.00000  -0.01024   3.11699
   A19        3.11358  -0.00057  -0.02090   0.00000  -0.02180   3.09177
   A20        3.16722  -0.00253   0.01896   0.00000   0.01911   3.18633
   A21        3.11500   0.00223  -0.01969   0.00000  -0.01989   3.09511
    D1       -1.70319   0.01927   0.07735   0.00000   0.07946  -1.62373
    D2        2.30714  -0.01827  -0.05612   0.00000  -0.05821   2.24893
    D3       -0.14964   0.01889   0.06461   0.00000   0.06669  -0.08295
    D4       -2.42249  -0.01865  -0.06886   0.00000  -0.07098  -2.49347
    D5        3.00666   0.01917   0.07550   0.00000   0.07769   3.08435
    D6        0.73380  -0.01838  -0.05797   0.00000  -0.05998   0.67382
    D7        1.41117   0.01869   0.05722   0.00000   0.05925   1.47042
    D8       -0.86169  -0.01886  -0.07625   0.00000  -0.07842  -0.94011
         Item               Value     Threshold  Converged?
 Maximum Force            0.100640     0.000450     NO 
 RMS     Force            0.027843     0.000300     NO 
 Maximum Displacement     0.423648     0.001800     NO 
 RMS     Displacement     0.137320     0.001200     NO 
 Predicted change in Energy=-4.577295D-03
 GradGradGradGradGradGradGradGradGradGradGradGradGradGradGradGradGradGrad

                          Input orientation:                          
 ---------------------------------------------------------------------
 Center     Atomic      Atomic             Coordinates (Angstroms)
 Number     Number       Type             X           Y           Z
 ---------------------------------------------------------------------
      1         78           0       -0.227848    0.363288    0.019696
      2         35           0       -0.416607    0.419449   -2.540238
      3         35           0        2.208111    0.457236   -0.001654
      4         35           0       -0.015624    2.974963   -0.012861
      5         35           0       -0.317253   -2.080220   -0.018399
      6          7           0       -2.529874    0.375217    0.138838
      7          8           0       -3.192633    1.362723    0.246883
      8          8           0       -3.092394   -0.453496    0.809534
      9         35           0       -0.178484    0.429658    2.587758
 ---------------------------------------------------------------------
                    Distance matrix (angstroms):
                    1          2          3          4          5
     1  Pt   0.000000
     2  Br   2.567498   0.000000
     3  Br   2.437863   3.651709   0.000000
     4  Br   2.620486   3.616500   3.359177   0.000000
     5  Br   2.445439   3.552166   3.580003   5.064176   0.000000
     6  N    2.305138   3.412521   4.740777   3.619826   3.309016
     7  O    3.136947   4.045260   5.481762   3.572138   4.493555
     8  O    3.081656   4.375254   5.439008   4.679442   3.321613
     9  Br   2.569394   5.133531   3.521597   3.642570   3.620883
                    6          7          8          9
     6  N    0.000000
     7  O    1.194190   0.000000
     8  O    1.205417   1.904016   0.000000
     9  Br   3.395469   3.928791   3.526034   0.000000
 Stoichiometry    Br5NO2Pt(2-)
 Framework group  C1[X(Br5NO2Pt)]
 Deg. of freedom    21
 Full point group                 C1      NOp   1
 Largest Abelian subgroup         C1      NOp   1
 Largest concise Abelian subgroup C1      NOp   1
                         Standard orientation:                         
 ---------------------------------------------------------------------
 Center     Atomic      Atomic             Coordinates (Angstroms)
 Number     Number       Type             X           Y           Z
 ---------------------------------------------------------------------
      1         78           0        0.054064   -0.056562    0.060212
      2         35           0       -1.316522   -2.200037    0.405256
      3         35           0       -0.730852    0.263951   -2.225473
      4         35           0       -2.092288    1.323301    0.656946
      5         35           0        1.993925   -1.392237   -0.597881
      6          7           0        0.769443   -0.223008    2.245204
      7          8           0        0.235987    0.311788    3.170141
      8          8           0        1.948662   -0.164718    2.488258
      9         35           0        1.372014    2.142060   -0.115425
 ---------------------------------------------------------------------
 Rotational constants (GHZ):      0.2744997      0.2724247      0.2404210
 Basis read from rwf:  (5D, 7F)
 Pseudo-potential data read from rwf file.
 There are   244 symmetry adapted cartesian basis functions of A   symmetry.
 There are   224 symmetry adapted basis functions of A   symmetry.
   224 basis functions,   518 primitive gaussians,   244 cartesian basis functions
   109 alpha electrons      109 beta electrons
       nuclear repulsion energy      3047.4271581595 Hartrees.
 NAtoms=    9 NActive=    9 NUniq=    9 SFac= 1.00D+00 NAtFMM=   60 NAOKFM=F Big=F
 Integral buffers will be    131072 words long.
 Raffenetti 2 integral format.
 Two-electron integral symmetry is turned on.
 ------------------------------------------------------------------------------
 Polarizable Continuum Model (PCM)
 =================================
 Model                : PCM (using non-symmetric T matrix).
 Atomic radii         : UFF (Universal Force Field).
 Polarization charges : Total charges.
 Charge compensation  : None.
 Solution method      : On-the-fly selection.
 Cavity type          : Scaled VdW (van der Waals Surface) (Alpha=1.100).
 Cavity algorithm     : GePol (No added spheres)
                        Default sphere list used, NSphG=    9.
                        Lebedev-Laikov grids with approx.  5.0 points / Ang**2.
                        Smoothing algorithm: Karplus/York (Gamma=1.0000).
                        Polarization charges: spherical gaussians, with
                                              point-specific exponents (IZeta= 3).
                        Self-potential: point-specific (ISelfS= 7).
                        Self-field    : sphere-specific E.n sum rule (ISelfD= 2).
 1st derivatives      : Analytical E(r).r(x)/FMM algorithm (CHGder, D1EAlg=3).
                        Cavity 1st derivative terms included.
 Solvent              : Water, Eps=  78.355300 Eps(inf)=   1.777849
 ------------------------------------------------------------------------------
 Spheres list:
 ISph  on   Nord     Re0    Alpha      Xe            Ye            Ze
    1  Pt      1    1.3770  1.100      0.054064     -0.056562      0.060212
    2  Br      2    2.0945  1.100     -1.316522     -2.200037      0.405256
    3  Br      3    2.0945  1.100     -0.730852      0.263951     -2.225473
    4  Br      4    2.0945  1.100     -2.092288      1.323301      0.656946
    5  Br      5    2.0945  1.100      1.993925     -1.392237     -0.597881
    6   N      6    1.8300  1.100      0.769443     -0.223008      2.245204
    7   O      7    1.7500  1.100      0.235987      0.311788      3.170141
    8   O      8    1.7500  1.100      1.948662     -0.164718      2.488258
    9  Br      9    2.0945  1.100      1.372014      2.142060     -0.115425
 ------------------------------------------------------------------------------
 One-electron integrals computed using PRISM.
   1 Symmetry operations used in ECPInt.
 ECPInt:  NShTT=    3741 NPrTT=   20753 LenC2=    3279 LenP2D=   11930.
 LDataN:  DoStor=T MaxTD1= 6 Len=  172
 NBasis=   224 RedAO= T EigKep=  4.67D-03  NBF=   224
 NBsUse=   224 1.00D-06 EigRej= -1.00D+00 NBFU=   224
 Defaulting to unpruned grid for atomic number  78.
 Initial guess from the checkpoint file:  "/home/scr/diego/Gau-22694.chk"
 B after Tr=     0.000000    0.000000    0.000000
         Rot=    0.911552   -0.092319   -0.032615   -0.399357 Ang= -48.56 deg.
 ExpMin= 2.90D-02 ExpMax= 1.13D+05 ExpMxC= 1.70D+04 IAcc=3 IRadAn=         5 AccDes= 0.00D+00
 Harris functional with IExCor=  402 and IRadAn=       5 diagonalized for initial guess.
 HarFok:  IExCor=  402 AccDes= 0.00D+00 IRadAn=         5 IDoV= 1 UseB2=F ITyADJ=14
 ICtDFT=  3500011 ScaDFX=  1.000000  1.000000  1.000000  1.000000
 Defaulting to unpruned grid for atomic number  78.
 Defaulting to unpruned grid for atomic number  78.
 Defaulting to unpruned grid for atomic number  78.
 Defaulting to unpruned grid for atomic number  78.
 Defaulting to unpruned grid for atomic number  78.
 Defaulting to unpruned grid for atomic number  78.
 Defaulting to unpruned grid for atomic number  78.
 Defaulting to unpruned grid for atomic number  78.
 FoFCou: FMM=F IPFlag=           0 FMFlag=      100000 FMFlg1=           0
         NFxFlg=           0 DoJE=T BraDBF=F KetDBF=T FulRan=T
         wScrn=  0.000000 ICntrl=     500 IOpCl=  0 I1Cent=   200000004 NGrid=           0
         NMat0=    1 NMatS0=      1 NMatT0=    0 NMatD0=    1 NMtDS0=    0 NMtDT0=    0
 Petite list used in FoFCou.
 Keep R1 ints in memory in canonical form, NReq=325086442.
 Requested convergence on RMS density matrix=1.00D-08 within 128 cycles.
 Requested convergence on MAX density matrix=1.00D-06.
 Requested convergence on             energy=1.00D-06.
 No special actions if energy rises.
 Defaulting to unpruned grid for atomic number  78.
 Defaulting to unpruned grid for atomic number  78.
 Defaulting to unpruned grid for atomic number  78.
 Defaulting to unpruned grid for atomic number  78.
 Defaulting to unpruned grid for atomic number  78.
 Defaulting to unpruned grid for atomic number  78.
 Defaulting to unpruned grid for atomic number  78.
 Defaulting to unpruned grid for atomic number  78.
 Inv3:  Mode=1 IEnd=     9526572.
 Iteration    1 A*A^-1 deviation from unit magnitude is 7.55D-15 for    345.
 Iteration    1 A*A^-1 deviation from orthogonality  is 3.07D-15 for    788    413.
 Iteration    1 A^-1*A deviation from unit magnitude is 7.11D-15 for   1361.
 Iteration    1 A^-1*A deviation from orthogonality  is 6.36D-15 for    265    192.
 Error on total polarization charges =  0.01652
 SCF Done:  E(RB3LYP) =  -13193.9047171     A.U. after   15 cycles
            NFock= 15  Conv=0.68D-08     -V/T= 2.0075
   1 Symmetry operations used in ECPInt.
 ECPInt:  NShTT=    3741 NPrTT=   20753 LenC2=    3279 LenP2D=   11930.
 LDataN:  DoStor=T MaxTD1= 7 Len=  274
 D1PCM: PCM CHGder 1st derivatives, ID1Alg=3 FixD1E=F DoIter=F DoCFld=F I1PDM=0.
 Calling FoFJK, ICntrl=      2127 FMM=F ISym2X=0 I1Cent= 0 IOpClX= 0 NMat=1 NMatS=1 NMatT=0.
 Defaulting to unpruned grid for atomic number  78.
 Defaulting to unpruned grid for atomic number  78.
 Defaulting to unpruned grid for atomic number  78.
 Defaulting to unpruned grid for atomic number  78.
 Defaulting to unpruned grid for atomic number  78.
 Defaulting to unpruned grid for atomic number  78.
 Defaulting to unpruned grid for atomic number  78.
 Defaulting to unpruned grid for atomic number  78.
 ***** Axes restored to original set *****
 -------------------------------------------------------------------
 Center     Atomic                   Forces (Hartrees/Bohr)
 Number     Number              X              Y              Z
 -------------------------------------------------------------------
      1       78          -0.031099739    0.030247899   -0.007837615
      2       35           0.000596705   -0.000807802    0.000346094
      3       35           0.022833565   -0.005727668   -0.001126126
      4       35          -0.006625135   -0.003672800    0.000726535
      5       35           0.000969390   -0.020964511    0.000262183
      6        7          -0.018822784    0.001933446    0.062960356
      7        8           0.007846338    0.131796637   -0.066250970
      8        8           0.025430329   -0.131751969    0.011654564
      9       35          -0.001128669   -0.001053232   -0.000735021
 -------------------------------------------------------------------
 Cartesian Forces:  Max     0.131796637 RMS     0.041848823

 GradGradGradGradGradGradGradGradGradGradGradGradGradGradGradGradGradGrad
 Berny optimization.
 Using GEDIIS/GDIIS optimizer.
 FormGI is forming the generalized inverse of G from B-inverse, IUseBI=4.
 Internal  Forces:  Max     0.132863200 RMS     0.036430143
 Search for a local minimum.
 Step number   4 out of a maximum of   47
 All quantities printed in internal units (Hartrees-Bohrs-Radians)
 Mixed Optimization -- RFO/linear search
 Update second derivatives using D2CorX and points    3    4
 ITU=  0  0  1  0
 Use linear search instead of GDIIS.
     Eigenvalues ---    0.00230   0.01471   0.08395   0.09398   0.12449
     Eigenvalues ---    0.12570   0.12677   0.13537   0.14034   0.16729
     Eigenvalues ---    0.19509   0.19509   0.19841   0.24556   0.24994
     Eigenvalues ---    0.25000   0.27829   0.34287   0.52948   0.77345
     Eigenvalues ---    0.90959
 RFO step:  Lambda=-9.40679841D-02 EMin= 2.30001862D-03
 Quartic linear search produced a step of -0.21705.
 Iteration  1 RMS(Cart)=  0.07490276 RMS(Int)=  0.02171423
 Iteration  2 RMS(Cart)=  0.02427482 RMS(Int)=  0.00071151
 Iteration  3 RMS(Cart)=  0.00070520 RMS(Int)=  0.00014918
 Iteration  4 RMS(Cart)=  0.00000034 RMS(Int)=  0.00014918
 Variable       Old X    -DE/DX   Delta X   Delta X   Delta X     New X
                                 (Linear)    (Quad)   (Total)
    R1        4.85187  -0.00040  -0.02396   0.04158   0.01762   4.86949
    R2        4.60689   0.02260  -0.07804   0.15931   0.08127   4.68816
    R3        4.95200  -0.00421  -0.03319   0.04361   0.01042   4.96242
    R4        4.62121   0.02091  -0.07936   0.16047   0.08111   4.70232
    R5        4.35608  -0.01400  -0.05491   0.04185  -0.01307   4.34301
    R6        4.85545  -0.00079  -0.02429   0.04103   0.01674   4.87219
    R7        2.25669   0.09865   0.02889   0.05036   0.07925   2.33594
    R8        2.27791   0.08520   0.02694   0.03773   0.06467   2.34258
    A1        1.63473  -0.00170  -0.00589   0.00490  -0.00098   1.63374
    A2        1.54256   0.00072   0.00251   0.00133   0.00377   1.54633
    A3        1.57443  -0.00006  -0.00029  -0.00077  -0.00100   1.57343
    A4        1.54880   0.00154   0.00205   0.00104   0.00308   1.55188
    A5        1.45107   0.01537   0.01099   0.03287   0.04382   1.49489
    A6        1.64577  -0.00956  -0.00693  -0.01683  -0.02377   1.62200
    A7        1.55936   0.00248   0.00109   0.00509   0.00617   1.56552
    A8        1.64723  -0.01006  -0.00706  -0.01617  -0.02325   1.62399
    A9        1.55591   0.00019   0.00124  -0.00004   0.00101   1.55693
   A10        1.54026   0.00420   0.00283   0.00023   0.00306   1.54332
   A11        1.61289  -0.00120  -0.00385  -0.00105  -0.00486   1.60803
   A12        1.53818  -0.00199   0.00306  -0.01014  -0.00711   1.53107
   A13        2.16904  -0.07455  -0.02169  -0.10518  -0.12641   2.04263
   A14        2.08430  -0.06703  -0.01382  -0.09484  -0.10819   1.97611
   A15        1.83296   0.13286   0.00992   0.33259   0.34303   2.17600
   A16        3.19408   0.00078  -0.00480   0.00999   0.00518   3.19926
[...]
 IR Inten    --    287.2722               972.4465               527.3432
  Atom  AN      X      Y      Z        X      Y      Z        X      Y      Z
     1  78     0.00   0.00  -0.01     0.00   0.00   0.00     0.00   0.00   0.00
     2  35     0.00   0.00   0.00     0.00   0.00   0.00     0.00   0.00   0.00
     3  35     0.00   0.00   0.01     0.00   0.00   0.00     0.00   0.00   0.00
     4  35     0.00   0.00   0.00     0.00   0.00   0.00     0.00   0.00   0.00
     5  35     0.00   0.00   0.00     0.00   0.00   0.00     0.00   0.00   0.00
     6   7     0.00   0.00   0.60     0.00   0.00   0.66     0.82  -0.02   0.00
     7   8     0.52  -0.01  -0.22    -0.45   0.01  -0.28    -0.36   0.01  -0.18
     8   8    -0.52   0.01  -0.22     0.45  -0.01  -0.28    -0.36   0.01   0.18
     9  35     0.00   0.00   0.00     0.00   0.00   0.00     0.00   0.00   0.00

 -------------------
 - Thermochemistry -
 -------------------
 Temperature   298.150 Kelvin.  Pressure   1.00000 Atm.
 Atom     1 has atomic number 78 and mass 194.96480
 Atom     2 has atomic number 35 and mass  78.91834
 Atom     3 has atomic number 35 and mass  78.91834
 Atom     4 has atomic number 35 and mass  78.91834
 Atom     5 has atomic number 35 and mass  78.91834
 Atom     6 has atomic number  7 and mass  14.00307
 Atom     7 has atomic number  8 and mass  15.99491
 Atom     8 has atomic number  8 and mass  15.99491
 Atom     9 has atomic number 35 and mass  78.91834
 Molecular mass:   635.54938 amu.
 Principal axes and moments of inertia in atomic units:
                           1         2         3
     Eigenvalues --  6689.995266710.602097543.76614
           X            0.99983  -0.01869   0.00005
           Y            0.01869   0.99983   0.00003
           Z           -0.00005  -0.00003   1.00000
 This molecule is an asymmetric top.
 Rotational symmetry number  1.
 Warning -- assumption of classical behavior for rotation
           may cause significant error
 Rotational temperatures (Kelvin)      0.01295     0.01291     0.01148
 Rotational constants (GHZ):           0.26977     0.26894     0.23924
 Zero-point vibrational energy      41197.3 (Joules/Mol)
                                    9.84640 (Kcal/Mol)
 Warning -- explicit consideration of  18 degrees of freedom as
           vibrations may cause significant error
 Vibrational temperatures:     64.40   105.36   112.53   120.31   128.25
          (Kelvin)            129.13   139.78   156.64   163.49   169.06
                              247.71   248.24   265.10   299.39   305.47
                              368.54   457.45   863.81  1197.40  2014.89
                             2352.83
 
 Zero-point correction=                           0.015691 (Hartree/Particle)
 Thermal correction to Energy=                    0.030081
 Thermal correction to Enthalpy=                  0.031025
 Thermal correction to Gibbs Free Energy=        -0.031500
 Sum of electronic and zero-point Energies=         -13193.949686
 Sum of electronic and thermal Energies=            -13193.935296
 Sum of electronic and thermal Enthalpies=          -13193.934352
 Sum of electronic and thermal Free Energies=       -13193.996877
 
                     E (Thermal)             CV                S
                      KCal/Mol        Cal/Mol-Kelvin    Cal/Mol-Kelvin
 Total                   18.876             39.950            131.596
 Electronic               0.000              0.000              0.000
 Translational            0.889              2.981             45.231
 Rotational               0.889              2.981             34.181
 Vibrational             17.099             33.988             52.184
 Vibration     1          0.595              1.979              5.036
 Vibration     2          0.599              1.967              4.065
 Vibration     3          0.600              1.964              3.935
 Vibration     4          0.601              1.960              3.804
 Vibration     5          0.602              1.957              3.679
 Vibration     6          0.602              1.956              3.665
 Vibration     7          0.603              1.951              3.511
 Vibration     8          0.606              1.942              3.289
 Vibration     9          0.607              1.938              3.206
 Vibration    10          0.608              1.935              3.141
 Vibration    11          0.626              1.877              2.412
 Vibration    12          0.626              1.876              2.408
 Vibration    13          0.631              1.861              2.285
 Vibration    14          0.641              1.828              2.060
 Vibration    15          0.643              1.822              2.024
 Vibration    16          0.666              1.752              1.688
 Vibration    17          0.704              1.639              1.321
 Vibration    18          0.959              1.031              0.449
                       Q            Log10(Q)             Ln(Q)
 Total Bot       0.308442D+15         14.489174         33.362557
 Total V=0       0.508890D+22         21.706624         49.981349
 Vib (Bot)       0.743466D-01         -1.128739         -2.599018
 Vib (Bot)    1  0.462043D+01          0.664683          1.530488
 Vib (Bot)    2  0.281521D+01          0.449510          1.035036
 Vib (Bot)    3  0.263380D+01          0.420582          0.968426
 Vib (Bot)    4  0.246152D+01          0.391203          0.900779
 Vib (Bot)    5  0.230685D+01          0.363020          0.835885
 Vib (Bot)    6  0.229088D+01          0.360003          0.828937
 Vib (Bot)    7  0.211359D+01          0.325020          0.748386
 Vib (Bot)    8  0.188163D+01          0.274535          0.632140
 Vib (Bot)    9  0.180100D+01          0.255514          0.588343
 Vib (Bot)   10  0.174021D+01          0.240601          0.554004
 Vib (Bot)   11  0.116967D+01          0.068063          0.156721
 Vib (Bot)   12  0.116707D+01          0.067096          0.154494
 Vib (Bot)   13  0.108848D+01          0.036820          0.084780
 Vib (Bot)   14  0.955231D+00         -0.019892         -0.045802
 Vib (Bot)   15  0.934612D+00         -0.029369         -0.067624
 Vib (Bot)   16  0.759709D+00         -0.119353         -0.274820
 Vib (Bot)   17  0.591968D+00         -0.227702         -0.524303
 Vib (Bot)   18  0.248614D+00         -0.604475         -1.391855
 Vib (V=0)       0.122662D+07          6.088711         14.019774
 Vib (V=0)    1  0.514741D+01          0.711588          1.638493
 Vib (V=0)    2  0.335926D+01          0.526244          1.211722
 Vib (V=0)    3  0.318084D+01          0.502541          1.157144
 Vib (V=0)    4  0.301179D+01          0.478824          1.102534
 Vib (V=0)    5  0.286042D+01          0.456430          1.050968
 Vib (V=0)    6  0.284481D+01          0.454054          1.045497
 Vib (V=0)    7  0.267192D+01          0.426824          0.982798
 Vib (V=0)    8  0.244693D+01          0.388622          0.894835
 Vib (V=0)    9  0.236912D+01          0.374587          0.862519
 Vib (V=0)   10  0.231061D+01          0.363727          0.837513
 Vib (V=0)   11  0.177206D+01          0.248477          0.572140
 Vib (V=0)   12  0.176966D+01          0.247891          0.570789
 Vib (V=0)   13  0.169782D+01          0.229893          0.529348
 Vib (V=0)   14  0.157818D+01          0.198156          0.456271
 Vib (V=0)   15  0.155995D+01          0.193111          0.444655
 Vib (V=0)   16  0.140948D+01          0.149060          0.343222
 Vib (V=0)   17  0.127487D+01          0.105466          0.242846
 Vib (V=0)   18  0.105840D+01          0.024649          0.056757
 Electronic      0.100000D+01          0.000000          0.000000
 Translational   0.629766D+09          8.799179         20.260859
 Rotational      0.658771D+07          6.818734         15.700716
 ***** Axes restored to original set *****
 -------------------------------------------------------------------
 Center     Atomic                   Forces (Hartrees/Bohr)
 Number     Number              X              Y              Z
 -------------------------------------------------------------------
      1       78           0.000006784   -0.000018316    0.000009028
      2       35          -0.000002268    0.000130235   -0.000005382
      3       35          -0.000007871    0.000008028   -0.000000126
      4       35           0.000043991   -0.000002892    0.000105083
      5       35           0.000019319   -0.000006699   -0.000133335
      6        7           0.000022574    0.000028784    0.000019536
      7        8          -0.000036775    0.000020392    0.000040671
      8        8          -0.000030113   -0.000032304   -0.000043378
      9       35          -0.000015640   -0.000127227    0.000007902
 -------------------------------------------------------------------
 Cartesian Forces:  Max     0.000133335 RMS     0.000052435
 FormGI is forming the generalized inverse of G from B-inverse, IUseBI=4.

 GradGradGradGradGradGradGradGradGradGradGradGradGradGradGradGradGradGrad
 Berny optimization.
 Internal  Forces:  Max     0.000079547 RMS     0.000025464
 Search for a local minimum.
 Step number   1 out of a maximum of    2
 All quantities printed in internal units (Hartrees-Bohrs-Radians)
 Second derivative matrix not updated -- analytic derivatives used.
 ITU=  0
     Eigenvalues ---    0.00221   0.04345   0.06073   0.06093   0.06381
     Eigenvalues ---    0.07080   0.07984   0.08157   0.08442   0.08752
     Eigenvalues ---    0.09001   0.10177   0.10981   0.11274   0.12112
     Eigenvalues ---    0.12245   0.14221   0.17826   0.31941   0.59095
     Eigenvalues ---    0.84754
 Angle between quadratic step and forces=  63.77 degrees.
 Linear search not attempted -- first point.
 Iteration  1 RMS(Cart)=  0.00082505 RMS(Int)=  0.00000028
 Iteration  2 RMS(Cart)=  0.00000028 RMS(Int)=  0.00000005
 Variable       Old X    -DE/DX   Delta X   Delta X   Delta X     New X
                                 (Linear)    (Quad)   (Total)
    R1        4.84569   0.00001   0.00000   0.00009   0.00009   4.84578
    R2        4.93877  -0.00001   0.00000  -0.00014  -0.00014   4.93864
    R3        4.84581   0.00000   0.00000  -0.00002  -0.00002   4.84579
    R4        4.84569   0.00001   0.00000   0.00011   0.00011   4.84580
    R5        3.99875   0.00005   0.00000   0.00031   0.00031   3.99906
    R6        4.84573   0.00001   0.00000   0.00009   0.00009   4.84582
    R7        2.29560   0.00001   0.00000   0.00003   0.00003   2.29563
    R8        2.29560   0.00001   0.00000   0.00003   0.00003   2.29562
    A1        1.57183   0.00000   0.00000   0.00022   0.00022   1.57205
    A2        1.58594  -0.00002   0.00000  -0.00025  -0.00025   1.58569
    A3        1.55592   0.00000   0.00000  -0.00002  -0.00002   1.55590
    A4        1.56962   0.00001   0.00000  -0.00011  -0.00011   1.56950
    A5        1.57339  -0.00005   0.00000  -0.00060  -0.00060   1.57280
    A6        1.57325  -0.00003   0.00000  -0.00039  -0.00039   1.57286
    A7        1.57181   0.00002   0.00000   0.00031   0.00031   1.57212
    A8        1.56831   0.00004   0.00000   0.00046   0.00046   1.56877
    A9        1.55574   0.00001   0.00000   0.00019   0.00019   1.55592
   A10        1.56823   0.00004   0.00000   0.00053   0.00053   1.56875
   A11        1.58558   0.00000   0.00000   0.00009   0.00009   1.58566
   A12        1.56992  -0.00003   0.00000  -0.00042  -0.00042   1.56951
   A13        2.05926   0.00004   0.00000   0.00016   0.00016   2.05942
   A14        2.05944   0.00001   0.00000  -0.00003  -0.00003   2.05942
   A15        2.16448  -0.00005   0.00000  -0.00014  -0.00014   2.16434
   A16        3.14364   0.00002   0.00000   0.00053   0.00053   3.14418
   A17        3.14145   0.00001   0.00000   0.00010   0.00010   3.14155
   A18        3.14186  -0.00002   0.00000  -0.00027  -0.00027   3.14159
   A19        3.14168   0.00000   0.00000  -0.00007  -0.00007   3.14162
   A20        3.14148   0.00002   0.00000   0.00014   0.00014   3.14162
   A21        3.14665  -0.00008   0.00000  -0.00099  -0.00099   3.14566
    D1       -0.78513   0.00001   0.00000  -0.00085  -0.00085  -0.78599
    D2        2.35667   0.00000   0.00000  -0.00107  -0.00107   2.35560
    D3        0.80081  -0.00001   0.00000  -0.00111  -0.00111   0.79970
    D4       -2.34057  -0.00002   0.00000  -0.00132  -0.00132  -2.34189
    D5       -2.34105   0.00001   0.00000  -0.00083  -0.00083  -2.34189
    D6        0.80075   0.00000   0.00000  -0.00105  -0.00105   0.79970
    D7        2.35655   0.00001   0.00000  -0.00092  -0.00092   2.35563
    D8       -0.78483   0.00000   0.00000  -0.00113  -0.00113  -0.78596
         Item               Value     Threshold  Converged?
 Maximum Force            0.000080     0.000450     YES
 RMS     Force            0.000025     0.000300     YES
 Maximum Displacement     0.002324     0.001800     NO 
 RMS     Displacement     0.000825     0.001200     YES
 Predicted change in Energy=-1.173037D-07
 GradGradGradGradGradGradGradGradGradGradGradGradGradGradGradGradGradGrad

 1\1\GINC-NEQC17\Freq\RB3LYP\Gen\Br5N1O2Pt1(2-)\DIEGO\18-Aug-2021\0\\#N
  Geom=AllCheck Guess=TCheck SCRF=Check GenChk RB3LYP/ChkBas Freq\\Estr
 utura 36\\-2,1\Pt,-0.3208129571,0.4183857901,0.0910959856\Br,-0.536742
 6888,0.5046154629,-2.4625672584\Br,2.2830962773,0.3734544468,-0.127874
 4816\Br,-0.2730934349,2.9793560351,0.2125272956\Br,-0.3813821424,-2.14
 23312098,-0.0285558789\N,-2.4291339532,0.45453751,0.2680820854\O,-3.04
 50756665,1.2475583891,-0.4155987197\O,-2.9493322279,-0.3187721752,1.04
 72296889\Br,-0.1101290766,0.3320130409,2.6452171032\\Version=EM64L-G09
 RevD.01\State=1-A\HF=-13193.9653768\RMSD=5.935e-09\RMSF=5.244e-05\Zero
 Point=0.0156912\Thermal=0.030081\Dipole=0.1241077,-0.0024615,-0.010284
 \DipoleDeriv=1.0227744,0.0158234,0.0311823,0.0157051,1.3497156,0.12154
 12,0.0310702,0.1214022,1.3649555,-0.1385765,-0.0190964,-0.1398084,-0.0
 059877,-0.0737067,0.0437907,-0.0676358,0.04936,-1.459012,-1.6106157,0.
 0238004,0.119173,0.0247703,-0.1886477,0.0016587,0.1190517,-0.0104508,-
 0.2050108,-0.1246144,-0.0020004,0.0332828,-0.0726113,-1.4663829,-0.080
 4691,0.0108049,-0.0823334,-0.0786785,-0.1306673,-0.057686,-0.0274207,0
 .0127239,-1.4668116,-0.0865829,-0.0049776,-0.0772914,-0.0720276,3.2120
 349,-0.1048773,-0.1773839,-0.1049376,1.4009028,-0.8725071,-0.1775218,-
 0.875543,1.2958229,-2.0970626,0.412475,-0.2041903,0.5609731,-0.7548433
 ,0.3791521,-0.342657,0.3921426,-0.6278963,-1.9934021,-0.2975881,0.4473
 114,-0.4455682,-0.7252929,0.4522335,0.5859327,0.435825,-0.7614018,-0.1
 398707,0.0291495,-0.0821463,0.0149323,-0.0749335,0.0411828,-0.1540674,
 0.0468888,-1.4567514\Polar=236.4156552,-0.0413319,259.5176389,1.814208
 4,-5.2092459,258.8146338\PG=C01 [X(Br5N1O2Pt1)]\NImag=0\\0.17621823,-0
 .00004850,0.21711537,0.00320214,-0.00892782,0.21588031,-0.01240515,0.0
 0042652,-0.00593937,0.01373333,-0.00030750,-0.01471608,0.00212877,-0.0
 0101703,0.01468785,-0.00522966,0.00252522,-0.06552581,0.00541089,-0.00
 274214,0.08160356,-0.05097689,0.00064852,0.00281833,-0.00355176,0.0002
 3154,-0.00233098,0.07132661,0.00062962,-0.01777098,0.00062088,0.000215
 37,0.00032373,-0.00000728,-0.00099686,0.01443259,0.00282724,0.00091040
 ,-0.01777563,-0.00436423,-0.00011728,-0.00127712,-0.00473053,-0.000089
 04,0.01543632,-0.01186474,0.00042158,-0.00048006,0.00077198,-0.0002025
 5,0.00022059,-0.00264723,0.00448571,0.00024674,0.01403192,-0.00036695,
 -0.06602205,-0.00137380,-0.00032620,-0.00128183,-0.00165343,0.00247488
 ,-0.00166353,-0.00009052,0.00213952,0.08345640,0.00013782,-0.00215124,
 -0.01470593,-0.00044189,-0.00384405,-0.00122262,0.00027233,-0.00026090
 ,0.00023833,0.00052376,0.00138931,0.01471798,-0.01196766,-0.00261463,-
 0.00003662,0.00110337,0.00036454,-0.00030533,-0.00288166,-0.00442911,0
 .00027310,0.00267863,-0.00025839,0.00000458,0.01381495,-0.00171740,-0.
 06596700,-0.00126399,0.00004474,-0.00273631,0.00278967,-0.00240681,-0.
 00141951,0.00031143,-0.00033102,-0.01033823,-0.00082946,0.00052883,0.0
 8351123,-0.00067661,-0.00186749,-0.01467346,-0.00005126,0.00528705,-0.
 00155289,0.00024460,0.00048350,0.00023681,-0.00001064,-0.00083853,0.00
 281971,-0.00033510,0.00153464,0.01482542,-0.06348486,-0.00079832,0.001
 37348,-0.00409823,0.00074579,0.00239773,0.02031786,-0.00016799,-0.0011
 1681,-0.00497912,-0.00198914,-0.00022986,-0.00425597,0.00207446,0.0009
 6971,0.54549687,-0.00080362,-0.04257853,-0.01395794,0.00273651,-0.0005
 1519,-0.00067432,-0.00016772,0.00682170,0.00079827,-0.00192257,-0.0006
 9610,0.00159783,0.00229960,-0.00084065,0.00122567,-0.03192094,0.568988
 43,0.00137767,-0.01381442,-0.04453641,0.00252010,0.00116136,-0.0009975
 7,-0.00110849,0.00079816,0.00701351,-0.00249925,-0.00008297,-0.0002373
 6,0.00317702,-0.00051967,-0.00082382,-0.00899769,-0.38453369,0.5192177
 1,-0.00803657,0.01720516,-0.01407993,0.00114634,0.00025260,0.00086199,
 -0.01483814,-0.00101505,0.00231510,0.00009145,-0.00175035,-0.00000595,
 0.00067363,0.00014043,-0.00004371,-0.26101566,0.17505851,-0.14374660,0
 .23198374,0.00588339,0.00196732,0.01023756,-0.00129729,0.00098633,-0.0
 0040953,0.00536472,-0.00060003,-0.00120055,-0.00493757,-0.00100294,-0.
 00070383,-0.00007173,0.00029948,-0.00048375,0.16789643,-0.27076380,0.1
 8767162,-0.18672957,0.33847968,-0.00334862,0.00911239,0.00526043,0.004
 02397,-0.00171457,-0.00098990,-0.00367002,-0.00056004,-0.00040772,0.00
 129132,0.00010906,-0.00030828,-0.00083877,-0.00022494,0.00040535,-0.13
 713827,0.18696934,-0.21533219,0.15488688,-0.27796357,0.26922129,-0.005
 45151,-0.01514000,0.01619284,0.00070526,-0.00008687,0.00008136,-0.0143
 5600,0.00137714,0.00001230,0.00080460,-0.00019276,-0.00004122,0.000087
 30,0.00170153,-0.00007955,-0.22305475,-0.14261562,0.15109447,0.0492744
 0,0.01311628,-0.01520514,0.19166359,-0.00382669,0.00269302,0.01052666,
 -0.00081730,0.00038237,-0.00011254,-0.00499944,-0.00046320,-0.00028944
 ,-0.00002653,0.00030374,-0.00048699,0.00470508,-0.00122616,-0.00151922
 ,-0.13544613,-0.26001684,0.20799069,-0.00316170,-0.06971792,0.08472420
 ,0.14236110,0.32707264,0.00545256,0.01166903,0.00196304,-0.00009856,-0
 .00044446,0.00020966,0.00599227,-0.00092757,-0.00103093,0.00076462,-0.
 00022344,0.00026858,-0.00134220,-0.00013224,-0.00007507,0.14449140,0.2
 0872382,-0.26403245,-0.00001532,0.08309322,-0.05807145,-0.15095620,-0.
 30024593,0.32090228,-0.01203085,-0.00010034,-0.00305082,0.00259486,0.0
 0001948,-0.00110660,-0.00239279,-0.00009882,0.00453710,0.00111252,0.00
 026938,-0.00021956,0.00074741,-0.00003476,-0.00001743,-0.00492614,-0.0
 0266415,-0.00181723,0.00072082,0.00077533,-0.00000135,0.00032709,0.001
 21159,-0.00428857,0.01384708,0.00055765,-0.01472109,0.00200969,0.00003
 468,0.00286913,0.00028435,-0.00014884,0.00033922,-0.00023327,0.0003734
 2,-0.00275547,0.00528932,-0.00052418,-0.00128286,-0.00382186,-0.000394
 16,-0.00039901,0.00132892,-0.00000004,0.00035188,-0.00045187,-0.000520
 81,0.00097235,-0.00151244,0.00062228,0.01462584,-0.00374254,0.00254393
 ,-0.06588653,-0.00105965,0.00028534,-0.01024730,0.00251250,-0.00005772
 ,-0.00243358,-0.00005709,0.00276431,-0.00157041,-0.00059669,-0.0016654
 4,-0.00116205,-0.00174969,-0.00014898,-0.00027142,-0.00017246,-0.00024
 118,0.00022246,-0.00109884,-0.00058744,-0.00013365,0.00596446,-0.00289
 283,0.08148248\\-0.00000678,0.00001832,-0.00000903,0.00000227,-0.00013
 024,0.00000538,0.00000787,-0.00000803,0.00000013,-0.00004399,0.0000028
 9,-0.00010508,-0.00001932,0.00000670,0.00013333,-0.00002257,-0.0000287
 8,-0.00001954,0.00003678,-0.00002039,-0.00004067,0.00003011,0.00003230
 ,0.00004338,0.00001564,0.00012723,-0.00000790\\\@


 NO HUMAN INVESTIGATION CAN BECOME REAL SCIENCE
 WITHOUT GOING THROUGH MATHEMATICAL PEOPLE.
 -- LEONARDO DA VINCI, IN "PENSIERI" CA. 1492
 Job cpu time:       0 days  0 hours 22 minutes  5.4 seconds.
 File lengths (MBytes):  RWF=    141 Int=      0 D2E=      0 Chk=      8 Scr=      1
 Normal termination of Gaussian 09 at Wed Aug 18 05:36:37 2021.
