 Entering Gaussian System, Link 0=g09
 Input=37_D2O.com
 Output=37_D2O.log
 Initial command:
 /scr/programs/g09/l1.exe "/scr/guest/Gau-7364.inp" -scrdir="/scr/guest/"
 Entering Link 1 = /scr/programs/g09/l1.exe PID=      7365.
  
 Copyright (c) 1988,1990,1992,1993,1995,1998,2003,2009,2013,
            Gaussian, Inc.  All Rights Reserved.
  
 This is part of the Gaussian(R) 09 program.  It is based on
 the Gaussian(R) 03 system (copyright 2003, Gaussian, Inc.),
 the Gaussian(R) 98 system (copyright 1998, Gaussian, Inc.),
 the Gaussian(R) 94 system (copyright 1995, Gaussian, Inc.),
 the Gaussian 92(TM) system (copyright 1992, Gaussian, Inc.),
 the Gaussian 90(TM) system (copyright 1990, Gaussian, Inc.),
 the Gaussian 88(TM) system (copyright 1988, Gaussian, Inc.),
 the Gaussian 86(TM) system (copyright 1986, Carnegie Mellon
 University), and the Gaussian 82(TM) system (copyright 1983,
 Carnegie Mellon University). Gaussian is a federally registered
 trademark of Gaussian, Inc.
  
 This software contains proprietary and confidential information,
 including trade secrets, belonging to Gaussian, Inc.
  
 This software is provided under written license and may be
 used, copied, transmitted, or stored only in accord with that
 written license.
  
 The following legend is applicable only to US Government
 contracts under FAR:
  
                    RESTRICTED RIGHTS LEGEND
  
 Use, reproduction and disclosure by the US Government is
 subject to restrictions as set forth in subparagraphs (a)
 and (c) of the Commercial Computer Software - Restricted
 Rights clause in FAR 52.227-19.
  
 Gaussian, Inc.
 340 Quinnipiac St., Bldg. 40, Wallingford CT 06492
  
  
 ---------------------------------------------------------------
 Warning -- This program may not be used in any manner that
 competes with the business of Gaussian, Inc. or will provide
 assistance to any competitor of Gaussian, Inc.  The licensee
 of this program is prohibited from giving any competitor of
 Gaussian, Inc. access to this program.  By using this program,
 the user acknowledges that Gaussian, Inc. is engaged in the
 business of creating and licensing software in the field of
 computational chemistry and represents and warrants to the
 licensee that it is not a competitor of Gaussian, Inc. and that
 it will not use this program in any manner prohibited above.
 ---------------------------------------------------------------
  

 Cite this work as:
 Gaussian 09, Revision D.01,
 M. J. Frisch, G. W. Trucks, H. B. Schlegel, G. E. Scuseria, 
 M. A. Robb, J. R. Cheeseman, G. Scalmani, V. Barone, B. Mennucci, 
 G. A. Petersson, H. Nakatsuji, M. Caricato, X. Li, H. P. Hratchian, 
 A. F. Izmaylov, J. Bloino, G. Zheng, J. L. Sonnenberg, M. Hada, 
 M. Ehara, K. Toyota, R. Fukuda, J. Hasegawa, M. Ishida, T. Nakajima, 
 Y. Honda, O. Kitao, H. Nakai, T. Vreven, J. A. Montgomery, Jr., 
 J. E. Peralta, F. Ogliaro, M. Bearpark, J. J. Heyd, E. Brothers, 
 K. N. Kudin, V. N. Staroverov, T. Keith, R. Kobayashi, J. Normand, 
 K. Raghavachari, A. Rendell, J. C. Burant, S. S. Iyengar, J. Tomasi, 
 M. Cossi, N. Rega, J. M. Millam, M. Klene, J. E. Knox, J. B. Cross, 
 V. Bakken, C. Adamo, J. Jaramillo, R. Gomperts, R. E. Stratmann, 
 O. Yazyev, A. J. Austin, R. Cammi, C. Pomelli, J. W. Ochterski, 
 R. L. Martin, K. Morokuma, V. G. Zakrzewski, G. A. Voth, 
 P. Salvador, J. J. Dannenberg, S. Dapprich, A. D. Daniels, 
 O. Farkas, J. B. Foresman, J. V. Ortiz, J. Cioslowski, 
 and D. J. Fox, Gaussian, Inc., Wallingford CT, 2013.
 
 ******************************************
 Gaussian 09:  EM64L-G09RevD.01 24-Apr-2013
                13-Apr-2022 
 ******************************************
 %mem=30Gb
 %nproc=24
 Will use up to   24 processors via shared memory.
 -----------------------------------------------------------------
 #b3lyp/gen pseudo=read opt=(loose,cartesian) scrf=(solvent=water)
 -----------------------------------------------------------------
 1/7=-1,10=7,14=-1,18=10,26=3,38=1/1,3;
 2/12=2,17=6,18=5,29=2,40=1/2;
 3/5=7,11=2,16=1,17=8,25=1,30=1,70=2201,71=1,72=1,74=-5/1,2,3;
 4//1;
 5/5=2,38=5,53=1/2;
 6/7=2,8=2,9=2,10=2,28=1/1;
 7/7=1,29=1/1,2,3,16;
 1/7=-1,10=7,14=-1,18=10,26=3/3(2);
 2/29=1/2;
 99/12=1/99;
 2/29=1/2;
 3/5=7,6=1,11=2,16=1,17=8,25=1,30=1,70=2205,71=1,72=1,74=-5,82=7/1,2,3;
 4/5=5,16=3,69=1/1;
 5/5=2,38=5,53=1/2;
 7/7=1/1,2,3,16;
 1/7=-1,14=-1,18=10,26=3/3(-5);
 2/29=1/2;
 6/7=2,8=2,9=2,10=2,19=2,28=1/1;
 99/9=1,12=1/99;
 ------------
 Estrutura 37
 ------------
 Symbolic Z-matrix:
 Charge = -2 Multiplicity = 1
 Pt                   -0.00009   0.00023   0.0011 
 N                     0.01042   0.00267  -2.13851 
 O                     0.21653   1.05537  -2.71971 
 O                    -0.18413  -1.04917  -2.7251 
 N                    -0.00755  -0.00175   2.14282 
 O                     1.04411  -0.18774   2.73146 
 O                    -1.06457   0.18163   2.72268 
 Cl                    0.58788  -2.20057   0.09672 
 Cl                    2.20065   0.58891  -0.09181 
 Cl                   -0.59147   2.20014   0.09632 
 Cl                   -2.20037  -0.58779  -0.10559 
 

 GradGradGradGradGradGradGradGradGradGradGradGradGradGradGradGradGradGrad
 Berny optimization.
 Initialization pass.
 No Z-matrix variables, so optimization will use Cartesian coordinates.
 Trust Radius=3.00D-01 FncErr=1.00D-07 GrdErr=1.00D-06
 Number of steps in this run=     43 maximum allowed number of steps=    100.
 GradGradGradGradGradGradGradGradGradGradGradGradGradGradGradGradGradGrad

 ---------------------------------------------------------------------------------------------------
                            Z-MATRIX (ANGSTROMS AND DEGREES)
   CD    Cent   Atom    N1       Length/X        N2       Alpha/Y        N3        Beta/Z          J
 ---------------------------------------------------------------------------------------------------
      1      1  Pt       0  -0.000089          0.000233          0.001100
      2      2  N        0   0.010424          0.002669         -2.138506
      3      3  O        0   0.216529          1.055372         -2.719710
      4      4  O        0  -0.184134         -1.049170         -2.725104
      5      5  N        0  -0.007551         -0.001747          2.142817
      6      6  O        0   1.044105         -0.187744          2.731461
      7      7  O        0  -1.064568          0.181632          2.722680
      8      8  Cl       0   0.587884         -2.200573          0.096719
      9      9  Cl       0   2.200645          0.588908         -0.091807
     10     10  Cl       0  -0.591468          2.200143          0.096318
     11     11  Cl       0  -2.200372         -0.587790         -0.105591
 ---------------------------------------------------------------------------------------------------
                         Z-Matrix orientation:                         
 ---------------------------------------------------------------------
 Center     Atomic      Atomic             Coordinates (Angstroms)
 Number     Number       Type             X           Y           Z
 ---------------------------------------------------------------------
      1         78           0       -0.000089    0.000233    0.001100
      2          7           0        0.010424    0.002669   -2.138506
      3          8           0        0.216529    1.055372   -2.719710
      4          8           0       -0.184134   -1.049170   -2.725104
      5          7           0       -0.007551   -0.001747    2.142817
      6          8           0        1.044105   -0.187744    2.731461
      7          8           0       -1.064568    0.181632    2.722680
      8         17           0        0.587884   -2.200573    0.096719
      9         17           0        2.200645    0.588908   -0.091807
     10         17           0       -0.591468    2.200143    0.096318
     11         17           0       -2.200372   -0.587790   -0.105591
 ---------------------------------------------------------------------
                    Distance matrix (angstroms):
                    1          2          3          4          5
     1  Pt   0.000000
     2  N    2.139633   0.000000
     3  O    2.926269   1.220025   0.000000
     4  O    2.926996   1.219965   2.142348   0.000000
     5  N    2.141731   4.281363   4.981153   4.982462   0.000000
     6  O    2.929257   4.982101   5.652034   5.659039   1.219458
     7  O    2.927972   4.981844   5.658996   5.654059   1.219489
     8  Cl   2.280000   3.191232   4.321036   3.143951   3.062008
     9  Cl   2.280000   3.054459   3.325685   3.912125   3.196646
    10  Cl   2.280000   3.191490   3.145374   4.322543   3.062260
    11  Cl   2.280000   3.060883   3.921098   3.337655   3.194878
                    6          7          8          9         10
     6  O    0.000000
     7  O    2.140798   0.000000
     8  Cl   3.346861   3.911670   0.000000
     9  Cl   3.148271   4.329991   3.227653   0.000000
    10  Cl   3.914215   3.346040   4.556004   3.229143   0.000000
    11  Cl   4.328456   3.143434   3.227440   4.555630   3.225199
                   11
    11  Cl   0.000000
 Stoichiometry    Cl4N2O4Pt(2-)
 Framework group  C1[X(Cl4N2O4Pt)]
 Deg. of freedom    27
 Full point group                 C1      NOp   1
 Largest Abelian subgroup         C1      NOp   1
 Largest concise Abelian subgroup C1      NOp   1
                         Standard orientation:                         
 ---------------------------------------------------------------------
 Center     Atomic      Atomic             Coordinates (Angstroms)
 Number     Number       Type             X           Y           Z
 ---------------------------------------------------------------------
      1         78           0       -0.000496    0.000302    0.000196
      2          7           0        2.139129    0.006134    0.001767
      3          8           0        2.723686   -0.644016    0.852682
      4          8           0        2.722427    0.654479   -0.851303
      5          7           0       -2.142207   -0.008480   -0.002333
      6          8           0       -2.723073   -0.870789   -0.639589
      7          8           0       -2.729859    0.850879    0.632744
      8         17           0       -0.095337    0.456512   -2.231681
      9         17           0        0.110310   -2.230866   -0.455886
     10         17           0       -0.096515   -0.453918    2.232430
     11         17           0        0.088294    2.232298    0.457042
 ---------------------------------------------------------------------
 Rotational constants (GHZ):      0.6323955      0.5034357      0.5030347
 General basis read from cards:  (5D, 7F)
 ======================================================================================================
                                       Pseudopotential Parameters
 ======================================================================================================
  Center     Atomic      Valence      Angular      Power
  Number     Number     Electrons     Momentum     of R      Exponent        Coefficient   SO-Coeffient
 ======================================================================================================
    1         78           18
                                      G and up 
                                                     1      728.9394056       -0.16192680    0.00000000
                                                     2      320.6567800    -1320.28738520    0.00000000
                                                     2       52.8680174     -298.31781350    0.00000000
                                                     2       12.0280128      -87.58370650    0.00000000
                                                     2        3.5238913       -8.14932740    0.00000000
                                      S - G
                                                     0      409.4437358        2.73342180    0.00000000
                                                     1      274.5419231       59.70243290    0.00000000
                                                     2      127.5658570      891.45895500    0.00000000
                                                     2       32.9036631      368.44676560    0.00000000
                                                     2        5.0593880      238.02630900    0.00000000
                                                     2        4.1506556     -107.05564540    0.00000000
                                      P - G
                                                     0      466.1728892        1.88785680    0.00000000
                                                     1      120.7888259       76.01386290    0.00000000
                                                     2       36.4118791      343.55111160    0.00000000
                                                     2        5.6985408      119.49117860    0.00000000
                                      D - G
                                                     0      249.5650763        2.93436780    0.00000000
                                                     1      126.6678585       59.33065710    0.00000000
                                                     2       63.1430586      452.44451940    0.00000000
                                                     2       17.9059470      210.47694790    0.00000000
                                                     2        4.2239373       58.62541120    0.00000000
                                      F - G
                                                     0      121.8158799        3.95342530    0.00000000
                                                     1       60.8757030       53.85551820    0.00000000
                                                     2       31.4767147      247.43051330    0.00000000
                                                     2        9.8811751      127.81879760    0.00000000
                                                     2        2.7319874       15.37720460    0.00000000
    2          7
                                   No pseudopotential on this center.
    3          8
                                   No pseudopotential on this center.
    4          8
                                   No pseudopotential on this center.
    5          7
                                   No pseudopotential on this center.
    6          8
                                   No pseudopotential on this center.
    7          8
                                   No pseudopotential on this center.
    8         17
                                   No pseudopotential on this center.
    9         17
                                   No pseudopotential on this center.
   10         17
                                   No pseudopotential on this center.
   11         17
                                   No pseudopotential on this center.
 ======================================================================================================
 There are   190 symmetry adapted cartesian basis functions of A   symmetry.
 There are   178 symmetry adapted basis functions of A   symmetry.
   178 basis functions,   341 primitive gaussians,   190 cartesian basis functions
    67 alpha electrons       67 beta electrons
       nuclear repulsion energy      1368.8062013488 Hartrees.
 NAtoms=   11 NActive=   11 NUniq=   11 SFac= 1.00D+00 NAtFMM=   60 NAOKFM=F Big=F
 Integral buffers will be    131072 words long.
 Raffenetti 2 integral format.
 Two-electron integral symmetry is turned on.
 ------------------------------------------------------------------------------
 Polarizable Continuum Model (PCM)
 =================================
 Model                : PCM (using non-symmetric T matrix).
 Atomic radii         : UFF (Universal Force Field).
 Polarization charges : Total charges.
 Charge compensation  : None.
 Solution method      : On-the-fly selection.
 Cavity type          : Scaled VdW (van der Waals Surface) (Alpha=1.100).
 Cavity algorithm     : GePol (No added spheres)
                        Default sphere list used, NSphG=   11.
                        Lebedev-Laikov grids with approx.  5.0 points / Ang**2.
                        Smoothing algorithm: Karplus/York (Gamma=1.0000).
                        Polarization charges: spherical gaussians, with
                                              point-specific exponents (IZeta= 3).
                        Self-potential: point-specific (ISelfS= 7).
                        Self-field    : sphere-specific E.n sum rule (ISelfD= 2).
 1st derivatives      : Analytical E(r).r(x)/FMM algorithm (CHGder, D1EAlg=3).
                        Cavity 1st derivative terms included.
 Solvent              : Water, Eps=  78.355300 Eps(inf)=   1.777849
 ------------------------------------------------------------------------------
 Spheres list:
 ISph  on   Nord     Re0    Alpha      Xe            Ye            Ze
    1  Pt      1    1.3770  1.100     -0.000496      0.000302      0.000196
    2   N      2    1.8300  1.100      2.139129      0.006134      0.001767
    3   O      3    1.7500  1.100      2.723686     -0.644016      0.852682
    4   O      4    1.7500  1.100      2.722427      0.654479     -0.851303
    5   N      5    1.8300  1.100     -2.142207     -0.008480     -0.002333
    6   O      6    1.7500  1.100     -2.723073     -0.870789     -0.639589
    7   O      7    1.7500  1.100     -2.729859      0.850879      0.632744
    8  Cl      8    1.9735  1.100     -0.095337      0.456512     -2.231681
    9  Cl      9    1.9735  1.100      0.110310     -2.230866     -0.455886
   10  Cl     10    1.9735  1.100     -0.096515     -0.453918      2.232430
   11  Cl     11    1.9735  1.100      0.088294      2.232298      0.457042
 ------------------------------------------------------------------------------
 One-electron integrals computed using PRISM.
   1 Symmetry operations used in ECPInt.
 ECPInt:  NShTT=    2926 NPrTT=   13061 LenC2=    2740 LenP2D=    8742.
 LDataN:  DoStor=T MaxTD1= 6 Len=  172
 NBasis=   178 RedAO= T EigKep=  5.93D-03  NBF=   178
 NBsUse=   178 1.00D-06 EigRej= -1.00D+00 NBFU=   178
 Defaulting to unpruned grid for atomic number  78.
 ExpMin= 2.90D-02 ExpMax= 1.04D+04 ExpMxC= 1.57D+03 IAcc=3 IRadAn=         5 AccDes= 0.00D+00
 Harris functional with IExCor=  402 and IRadAn=       5 diagonalized for initial guess.
 HarFok:  IExCor=  402 AccDes= 0.00D+00 IRadAn=         5 IDoV= 1 UseB2=F ITyADJ=14
 ICtDFT=  3500011 ScaDFX=  1.000000  1.000000  1.000000  1.000000
 Defaulting to unpruned grid for atomic number  78.
 Defaulting to unpruned grid for atomic number  78.
 Defaulting to unpruned grid for atomic number  78.
 Defaulting to unpruned grid for atomic number  78.
 Defaulting to unpruned grid for atomic number  78.
 Defaulting to unpruned grid for atomic number  78.
 Defaulting to unpruned grid for atomic number  78.
 Defaulting to unpruned grid for atomic number  78.
 Defaulting to unpruned grid for atomic number  78.
 Defaulting to unpruned grid for atomic number  78.
 Defaulting to unpruned grid for atomic number  78.
 Defaulting to unpruned grid for atomic number  78.
 Defaulting to unpruned grid for atomic number  78.
 Defaulting to unpruned grid for atomic number  78.
 Defaulting to unpruned grid for atomic number  78.
 Defaulting to unpruned grid for atomic number  78.
 Defaulting to unpruned grid for atomic number  78.
 Defaulting to unpruned grid for atomic number  78.
 Defaulting to unpruned grid for atomic number  78.
 Defaulting to unpruned grid for atomic number  78.
 Defaulting to unpruned grid for atomic number  78.
 Defaulting to unpruned grid for atomic number  78.
 Defaulting to unpruned grid for atomic number  78.
 Defaulting to unpruned grid for atomic number  78.
 FoFCou: FMM=F IPFlag=           0 FMFlag=      100000 FMFlg1=           0
         NFxFlg=           0 DoJE=T BraDBF=F KetDBF=T FulRan=T
         wScrn=  0.000000 ICntrl=     500 IOpCl=  0 I1Cent=   200000004 NGrid=           0
         NMat0=    1 NMatS0=      1 NMatT0=    0 NMatD0=    1 NMtDS0=    0 NMtDT0=    0
 Petite list used in FoFCou.
 Keep R1 ints in memory in canonical form, NReq=132508364.
 Requested convergence on RMS density matrix=1.00D-08 within 128 cycles.
 Requested convergence on MAX density matrix=1.00D-06.
 Requested convergence on             energy=1.00D-06.
 No special actions if energy rises.
 Defaulting to unpruned grid for atomic number  78.
 Defaulting to unpruned grid for atomic number  78.
 Defaulting to unpruned grid for atomic number  78.
 Defaulting to unpruned grid for atomic number  78.
 Defaulting to unpruned grid for atomic number  78.
 Defaulting to unpruned grid for atomic number  78.
 Defaulting to unpruned grid for atomic number  78.
 Defaulting to unpruned grid for atomic number  78.
 Defaulting to unpruned grid for atomic number  78.
 Defaulting to unpruned grid for atomic number  78.
 Defaulting to unpruned grid for atomic number  78.
 Defaulting to unpruned grid for atomic number  78.
 Defaulting to unpruned grid for atomic number  78.
 Defaulting to unpruned grid for atomic number  78.
 Defaulting to unpruned grid for atomic number  78.
 Defaulting to unpruned grid for atomic number  78.
 Defaulting to unpruned grid for atomic number  78.
 Defaulting to unpruned grid for atomic number  78.
 Defaulting to unpruned grid for atomic number  78.
 Defaulting to unpruned grid for atomic number  78.
 Defaulting to unpruned grid for atomic number  78.
 Defaulting to unpruned grid for atomic number  78.
 Defaulting to unpruned grid for atomic number  78.
 Defaulting to unpruned grid for atomic number  78.
 Inv3:  Mode=1 IEnd=     6368547.
 Iteration    1 A*A^-1 deviation from unit magnitude is 5.88D-15 for   1405.
 Iteration    1 A*A^-1 deviation from orthogonality  is 2.71D-15 for   1138    724.
 Iteration    1 A^-1*A deviation from unit magnitude is 7.11D-15 for     24.
 Iteration    1 A^-1*A deviation from orthogonality  is 4.86D-14 for    968    711.
 EnCoef did   100 forward-backward iterations
 EnCoef did     5 forward-backward iterations
 EnCoef did     3 forward-backward iterations
 Error on total polarization charges =  0.01112
 SCF Done:  E(RB3LYP) =  -2369.77149710     A.U. after   15 cycles
            NFock= 15  Conv=0.79D-08     -V/T= 2.0385

 **********************************************************************

            Population analysis using the SCF density.

 **********************************************************************

 Orbital symmetries:
       Occupied  (A) (A) (A) (A) (A) (A) (A) (A) (A) (A) (A) (A)
                 (A) (A) (A) (A) (A) (A) (A) (A) (A) (A) (A) (A)
                 (A) (A) (A) (A) (A) (A) (A) (A) (A) (A) (A) (A)
                 (A) (A) (A) (A) (A) (A) (A) (A) (A) (A) (A) (A)
                 (A) (A) (A) (A) (A) (A) (A) (A) (A) (A) (A) (A)
                 (A) (A) (A) (A) (A) (A) (A)
       Virtual   (A) (A) (A) (A) (A) (A) (A) (A) (A) (A) (A) (A)
                 (A) (A) (A) (A) (A) (A) (A) (A) (A) (A) (A) (A)
                 (A) (A) (A) (A) (A) (A) (A) (A) (A) (A) (A) (A)
                 (A) (A) (A) (A) (A) (A) (A) (A) (A) (A) (A) (A)
                 (A) (A) (A) (A) (A) (A) (A) (A) (A) (A) (A) (A)
                 (A) (A) (A) (A) (A) (A) (A) (A) (A) (A) (A) (A)
                 (A) (A) (A) (A) (A) (A) (A) (A) (A) (A) (A) (A)
                 (A) (A) (A) (A) (A) (A) (A) (A) (A) (A) (A) (A)
                 (A) (A) (A) (A) (A) (A) (A) (A) (A) (A) (A) (A)
                 (A) (A) (A)
 The electronic state is 1-A.
 Alpha  occ. eigenvalues -- -101.44669-101.44667-101.44658-101.44652 -19.14444
 Alpha  occ. eigenvalues --  -19.14438 -19.14426 -19.14419 -14.51121 -14.51102
 Alpha  occ. eigenvalues --   -9.40025  -9.40023  -9.40017  -9.40012  -7.16817
 Alpha  occ. eigenvalues --   -7.16815  -7.16809  -7.16805  -7.15997  -7.15997
 Alpha  occ. eigenvalues --   -7.15989  -7.15986  -7.15979  -7.15979  -7.15971
 Alpha  occ. eigenvalues --   -7.15968  -4.01415  -2.22806  -2.22802  -2.22338
 Alpha  occ. eigenvalues --   -1.18728  -1.18619  -1.01577  -1.01570  -0.78008
 Alpha  occ. eigenvalues --   -0.75728  -0.75122  -0.75113  -0.62909  -0.60297
 Alpha  occ. eigenvalues --   -0.52338  -0.50512  -0.50216  -0.50202  -0.48674
 Alpha  occ. eigenvalues --   -0.48666  -0.42302  -0.41306  -0.40619  -0.37629
 Alpha  occ. eigenvalues --   -0.37611  -0.32251  -0.32247  -0.30429  -0.29799
 Alpha  occ. eigenvalues --   -0.29589  -0.28870  -0.27353  -0.27336  -0.26680
 Alpha  occ. eigenvalues --   -0.26660  -0.26300  -0.24679  -0.24426  -0.24350
 Alpha  occ. eigenvalues --   -0.24335  -0.22736
 Alpha virt. eigenvalues --   -0.07620  -0.06955  -0.03496  -0.03460   0.05679
 Alpha virt. eigenvalues --    0.05690   0.06459   0.14221   0.24904   0.28328
 Alpha virt. eigenvalues --    0.28371   0.30601   0.33561   0.38928   0.38973
 Alpha virt. eigenvalues --    0.40235   0.43414   0.43481   0.48002   0.57564
 Alpha virt. eigenvalues --    0.58439   0.64442   0.66522   0.70039   0.71164
 Alpha virt. eigenvalues --    0.71219   0.73645   0.73660   0.77918   0.77986
 Alpha virt. eigenvalues --    0.78333   0.78346   0.79398   0.79520   0.80471
 Alpha virt. eigenvalues --    0.81445   0.81927   0.82082   0.82099   0.82237
 Alpha virt. eigenvalues --    0.82241   0.82416   0.82803   0.83651   0.86012
 Alpha virt. eigenvalues --    0.91115   0.91137   0.91603   0.92786   0.92837
 Alpha virt. eigenvalues --    0.94855   0.95086   0.96781   0.98479   0.98527
 Alpha virt. eigenvalues --    0.98584   1.03590   1.04510   1.04597   1.07304
 Alpha virt. eigenvalues --    1.09072   1.10825   1.10985   1.11488   1.12941
 Alpha virt. eigenvalues --    1.15452   1.15515   1.20095   1.23647   1.23814
 Alpha virt. eigenvalues --    1.23930   1.29452   1.39450   1.40603   1.40612
 Alpha virt. eigenvalues --    1.48059   1.49185   1.51360   1.51593   1.51829
 Alpha virt. eigenvalues --    1.81803   1.88195   1.92806   2.04093   2.04185
 Alpha virt. eigenvalues --    2.04822   2.42813   2.43128   2.44017   2.44164
 Alpha virt. eigenvalues --    2.62122   2.63327   2.64348   2.64364   2.66813
 Alpha virt. eigenvalues --    2.66857   2.72415   2.72542   3.00022   3.00071
 Alpha virt. eigenvalues --    3.07303   3.07418   3.30225   3.30473   3.35053
 Alpha virt. eigenvalues --    3.40107   3.73086   3.74668   3.74816   3.75229
 Alpha virt. eigenvalues --    6.33184
          Condensed to atoms (all electrons):
               1          2          3          4          5          6
     1  Pt  17.154225   0.107892  -0.019162  -0.019001   0.108877  -0.018842
     2  N    0.107892   6.207249   0.280292   0.280407  -0.002240   0.000043
     3  O   -0.019162   0.280292   8.129241  -0.102463   0.000043   0.000000
     4  O   -0.019001   0.280407  -0.102463   8.129130   0.000042   0.000000
     5  N    0.108877  -0.002240   0.000043   0.000042   6.203799   0.280972
     6  O   -0.018842   0.000043   0.000000   0.000000   0.280972   8.129312
     7  O   -0.019025   0.000043   0.000000   0.000000   0.280814  -0.102898
     8  Cl   0.221457  -0.009667   0.000012  -0.000252  -0.009590  -0.000210
     9  Cl   0.221371  -0.010073  -0.000175  -0.000343  -0.009464  -0.000256
    10  Cl   0.221420  -0.009623  -0.000245   0.000012  -0.009579  -0.000340
    11  Cl   0.221469  -0.009784  -0.000328  -0.000169  -0.009509   0.000011
               7          8          9         10         11
     1  Pt  -0.019025   0.221457   0.221371   0.221420   0.221469
     2  N    0.000043  -0.009667  -0.010073  -0.009623  -0.009784
     3  O    0.000000   0.000012  -0.000175  -0.000245  -0.000328
     4  O    0.000000  -0.000252  -0.000343   0.000012  -0.000169
     5  N    0.280814  -0.009590  -0.009464  -0.009579  -0.009509
     6  O   -0.102898  -0.000210  -0.000256  -0.000340   0.000011
     7  O    8.129441  -0.000343   0.000011  -0.000210  -0.000287
     8  Cl  -0.000343  17.088326  -0.018808  -0.001881  -0.018815
     9  Cl   0.000011  -0.018808  17.088554  -0.018674  -0.001883
    10  Cl  -0.000210  -0.001881  -0.018674  17.088307  -0.018978
    11  Cl  -0.000287  -0.018815  -0.001883  -0.018978  17.088276
 Mulliken charges:
               1
     1  Pt  -0.180682
     2  N    0.165461
     3  O   -0.287214
     4  O   -0.287362
     5  N    0.165835
     6  O   -0.287790
     7  O   -0.287545
     8  Cl  -0.250230
     9  Cl  -0.250261
    10  Cl  -0.250210
    11  Cl  -0.250003
 Sum of Mulliken charges =  -2.00000
 Mulliken charges with hydrogens summed into heavy atoms:
               1
     1  Pt  -0.180682
     2  N    0.165461
     3  O   -0.287214
     4  O   -0.287362
     5  N    0.165835
     6  O   -0.287790
     7  O   -0.287545
     8  Cl  -0.250230
     9  Cl  -0.250261
    10  Cl  -0.250210
    11  Cl  -0.250003
 Electronic spatial extent (au):  <R**2>=           2776.3366
 Charge=             -2.0000 electrons
 Dipole moment (field-independent basis, Debye):
    X=              0.0104    Y=              0.0075    Z=              0.0063  Tot=              0.0142
 Quadrupole moment (field-independent basis, Debye-Ang):
   XX=           -145.5936   YY=           -132.7007   ZZ=           -132.5508
   XY=              0.0016   XZ=              0.0032   YZ=              0.0108
 Traceless Quadrupole moment (field-independent basis, Debye-Ang):
   XX=             -8.6452   YY=              4.2477   ZZ=              4.3975
   XY=              0.0016   XZ=              0.0032   YZ=              0.0108
 Octapole moment (field-independent basis, Debye-Ang**2):
  XXX=              0.1900  YYY=              0.0434  ZZZ=              0.0023  XYY=              2.6480
  XXY=              0.0694  XXZ=              0.0141  XZZ=             -2.6881  YZZ=              0.0125
  YYZ=              0.0886  XYZ=             13.2557
 Hexadecapole moment (field-independent basis, Debye-Ang**3):
 XXXX=          -1712.0128 YYYY=          -1087.4264 ZZZZ=          -1085.5834 XXXY=             -0.3277
 XXXZ=             -0.0126 YYYX=              0.1462 YYYZ=             -9.0399 ZZZX=              0.0213
 ZZZY=              8.9693 XXYY=           -433.7975 XXZZ=           -432.4039 YYZZ=           -353.7583
 XXYZ=              0.0900 YYXZ=             -0.0237 ZZXY=             -0.0121
 N-N= 1.368806201349D+03 E-N=-8.368186521220D+03  KE= 2.281887619505D+03
   1 Symmetry operations used in ECPInt.
 ECPInt:  NShTT=    2926 NPrTT=   13061 LenC2=    2740 LenP2D=    8742.
 LDataN:  DoStor=T MaxTD1= 7 Len=  274
 D1PCM: PCM CHGder 1st derivatives, ID1Alg=3 FixD1E=F DoIter=F DoCFld=F I1PDM=0.
 Calling FoFJK, ICntrl=      2127 FMM=F ISym2X=0 I1Cent= 0 IOpClX= 0 NMat=1 NMatS=1 NMatT=0.
 Defaulting to unpruned grid for atomic number  78.
 Defaulting to unpruned grid for atomic number  78.
 Defaulting to unpruned grid for atomic number  78.
 Defaulting to unpruned grid for atomic number  78.
 Defaulting to unpruned grid for atomic number  78.
 Defaulting to unpruned grid for atomic number  78.
 Defaulting to unpruned grid for atomic number  78.
 Defaulting to unpruned grid for atomic number  78.
 Defaulting to unpruned grid for atomic number  78.
 Defaulting to unpruned grid for atomic number  78.
 Defaulting to unpruned grid for atomic number  78.
 Defaulting to unpruned grid for atomic number  78.
 Defaulting to unpruned grid for atomic number  78.
 Defaulting to unpruned grid for atomic number  78.
 Defaulting to unpruned grid for atomic number  78.
 Defaulting to unpruned grid for atomic number  78.
 Defaulting to unpruned grid for atomic number  78.
 Defaulting to unpruned grid for atomic number  78.
 Defaulting to unpruned grid for atomic number  78.
 Defaulting to unpruned grid for atomic number  78.
 Defaulting to unpruned grid for atomic number  78.
 Defaulting to unpruned grid for atomic number  78.
 Defaulting to unpruned grid for atomic number  78.
 Defaulting to unpruned grid for atomic number  78.
 ***** Axes restored to original set *****
 -------------------------------------------------------------------
 Center     Atomic                   Forces (Hartrees/Bohr)
 Number     Number              X              Y              Z
 -------------------------------------------------------------------
      1       78          -0.000043297    0.000053177    0.000074065
      2        7           0.000366221    0.000016955   -0.003687764
      3        8          -0.000007261   -0.000776234    0.000684198
      4        8          -0.000386742    0.000742235    0.000692144
      5        7          -0.000189540   -0.000133477    0.002883369
      6        8           0.000274220   -0.000318304   -0.000521318
      7        8          -0.000166460    0.000451422   -0.000440255
      8       17           0.010635661   -0.039282956    0.001148134
      9       17           0.039351024    0.010672773   -0.000760891
     10       17          -0.010623664    0.039272826    0.001142149
     11       17          -0.039210161   -0.010698418   -0.001213832
 -------------------------------------------------------------------
 Cartesian Forces:  Max     0.039351024 RMS     0.014201686

 GradGradGradGradGradGradGradGradGradGradGradGradGradGradGradGradGradGrad
 Berny optimization.
 Search for a local minimum.
 Step number   1 out of a maximum of   43
 All quantities printed in internal units (Hartrees-Bohrs-Radians)
 Second derivative matrix not updated -- first step.
 ITU=  0
     Eigenvalues ---    0.00225   0.00270   0.01493   0.01496   0.02816
     Eigenvalues ---    0.02825   0.03833   0.05145   0.05427   0.05477
     Eigenvalues ---    0.05487   0.05635   0.10384   0.10416   0.14149
     Eigenvalues ---    0.14181   0.21916   0.22001   0.28581   0.31548
     Eigenvalues ---    0.64648   0.86169   0.86205   1.53547   1.55243
     Eigenvalues ---    2.52488   2.52983
 RFO step:  Lambda=-2.69389843D-02 EMin= 2.24689449D-03
 Linear search not attempted -- first point.
 Maximum step size (   0.300) exceeded in Quadratic search.
    -- Step size scaled by   0.904
 TrRot=  0.000132 -0.000045  0.000168  0.000143 -0.000039  0.000143
 Variable       Old X    -DE/DX   Delta X   Delta X   Delta X     New X
                                 (Linear)    (Quad)   (Total)
    X1       -0.00017  -0.00004   0.00000   0.00052   0.00066   0.00049
    Y1        0.00044   0.00005   0.00000  -0.00017  -0.00021   0.00023
    Z1        0.00208   0.00007   0.00000   0.00011   0.00028   0.00236
    X2        0.01970   0.00037   0.00000   0.00176   0.00205   0.02175
    Y2        0.00504   0.00002   0.00000  -0.00033  -0.00037   0.00468
    Z2       -4.04119  -0.00369   0.00000  -0.01026  -0.01009  -4.05128
    X3        0.40918  -0.00001   0.00000   0.00722   0.00699   0.41617
    Y3        1.99436  -0.00078   0.00000  -0.00111  -0.00104   1.99332
    Z3       -5.13951   0.00068   0.00000  -0.00753  -0.00735  -5.14685
    X4       -0.34796  -0.00039   0.00000  -0.01318  -0.01228  -0.36024
    Y4       -1.98264   0.00074   0.00000   0.00179   0.00164  -1.98100
    Z4       -5.14970   0.00069   0.00000  -0.00707  -0.00692  -5.15662
    X5       -0.01427  -0.00019   0.00000  -0.00058  -0.00061  -0.01487
    Y5       -0.00330  -0.00013   0.00000  -0.00078  -0.00083  -0.00413
    Z5        4.04934   0.00288   0.00000   0.00892   0.00909   4.05842
    X6        1.97307   0.00027   0.00000   0.00010   0.00014   1.97321
    Y6       -0.35478  -0.00032   0.00000  -0.00980  -0.00928  -0.36407
    Z6        5.16171  -0.00052   0.00000   0.00470   0.00494   5.16665
    X7       -2.01174  -0.00017   0.00000  -0.00007  -0.00024  -2.01199
    Y7        0.34323   0.00045   0.00000   0.01192   0.01130   0.35453
    Z7        5.14512  -0.00044   0.00000   0.00555   0.00564   5.15076
    X8        1.11094   0.01064   0.00000   0.04205   0.04340   1.15434
    Y8       -4.15848  -0.03928   0.00000  -0.14349  -0.14321  -4.30169
    Z8        0.18277   0.00115   0.00000  -0.00002   0.00019   0.18296
    X9        4.15862   0.03935   0.00000   0.14408   0.14389   4.30250
    Y9        1.11287   0.01067   0.00000   0.04188   0.04306   1.15594
    Z9       -0.17349  -0.00076   0.00000   0.00439   0.00473  -0.16876
   X10       -1.11771  -0.01062   0.00000  -0.04090  -0.04201  -1.15972
   Y10        4.15767   0.03927   0.00000   0.14321   0.14284   4.30050
   Z10        0.18202   0.00114   0.00000  -0.00005   0.00007   0.18209
   X11       -4.15810  -0.03921   0.00000  -0.14245  -0.14198  -4.30008
   Y11       -1.11076  -0.01070   0.00000  -0.04262  -0.04390  -1.15466
   Z11       -0.19954  -0.00121   0.00000  -0.00059  -0.00059  -0.20013
         Item               Value     Threshold  Converged?
 Maximum Force            0.039351     0.002500     NO 
 RMS     Force            0.014202     0.001667     NO 
 Maximum Displacement     0.143888     0.010000     NO 
 RMS     Displacement     0.052221     0.006667     NO 
 Predicted change in Energy=-1.455854D-02
 GradGradGradGradGradGradGradGradGradGradGradGradGradGradGradGradGradGrad

                          Input orientation:                          
 ---------------------------------------------------------------------
 Center     Atomic      Atomic             Coordinates (Angstroms)
 Number     Number       Type             X           Y           Z
 ---------------------------------------------------------------------
      1         78           0        0.000258    0.000119    0.001247
      2          7           0        0.011509    0.002476   -2.143843
      3          8           0        0.220226    1.054822   -2.723598
      4          8           0       -0.190633   -1.048301   -2.728765
      5          7           0       -0.007871   -0.002188    2.147626
      6          8           0        1.044178   -0.192655    2.734076
      7          8           0       -1.064697    0.187611    2.725665
      8         17           0        0.610851   -2.276354    0.096820
      9         17           0        2.276788    0.611696   -0.089305
     10         17           0       -0.613699    2.275728    0.096358
     11         17           0       -2.275506   -0.611020   -0.105902
 ---------------------------------------------------------------------
                    Distance matrix (angstroms):
                    1          2          3          4          5
     1  Pt   0.000000
     2  N    2.145122   0.000000
     3  O    2.930114   1.219472   0.000000
     4  O    2.930630   1.219478   2.142885   0.000000
     5  N    2.146395   4.291516   4.989802   4.990686   0.000000
     6  O    2.931771   4.989847   5.658737   5.665644   1.219430
     7  O    2.931166   4.990452   5.665470   5.660590   1.219440
     8  Cl   2.358875   3.251592   4.382246   3.183461   3.124173
     9  Cl   2.358985   3.118295   3.371247   3.976243   3.255822
    10  Cl   2.358895   3.252240   3.184053   4.382862   3.124681
    11  Cl   2.358829   3.124103   3.981964   3.378952   3.254417
                    6          7          8          9         10
     6  O    0.000000
     7  O    2.142902   0.000000
     8  Cl   3.388907   3.973590   0.000000
     9  Cl   3.183988   4.389695   3.339284   0.000000
    10  Cl   3.974799   3.387756   4.713914   3.340417   0.000000
    11  Cl   4.388714   3.181453   3.338486   4.713670   3.337039
                   11
    11  Cl   0.000000
 Stoichiometry    Cl4N2O4Pt(2-)
 Framework group  C1[X(Cl4N2O4Pt)]
 Deg. of freedom    27
 Full point group                 C1      NOp   1
 Largest Abelian subgroup         C1      NOp   1
 Largest concise Abelian subgroup C1      NOp   1
                         Standard orientation:                         
 ---------------------------------------------------------------------
 Center     Atomic      Atomic             Coordinates (Angstroms)
 Number     Number       Type             X           Y           Z
 ---------------------------------------------------------------------
      1         78           0       -0.000477    0.000193    0.000096
      2          7           0        2.144642    0.003770    0.001089
      3          8           0        2.727368   -0.665345    0.837645
      4          8           0        2.726611    0.674280   -0.834887
      5          7           0       -2.146861   -0.006180   -0.002304
      6          8           0       -2.726277   -0.853800   -0.660201
      7          8           0       -2.731939    0.838034    0.654977
      8         17           0       -0.095139    0.514677   -2.300042
      9         17           0        0.106759   -2.299593   -0.514002
     10         17           0       -0.096516   -0.512211    2.300662
     11         17           0        0.089991    2.300447    0.514606
 ---------------------------------------------------------------------
 Rotational constants (GHZ):      0.5942495      0.4900823      0.4896678
 Basis read from rwf:  (5D, 7F)
 Pseudo-potential data read from rwf file.
 There are   190 symmetry adapted cartesian basis functions of A   symmetry.
 There are   178 symmetry adapted basis functions of A   symmetry.
   178 basis functions,   341 primitive gaussians,   190 cartesian basis functions
    67 alpha electrons       67 beta electrons
       nuclear repulsion energy      1343.0323661070 Hartrees.
 NAtoms=   11 NActive=   11 NUniq=   11 SFac= 1.00D+00 NAtFMM=   60 NAOKFM=F Big=F
 Integral buffers will be    131072 words long.
 Raffenetti 2 integral format.
 Two-electron integral symmetry is turned on.
 ------------------------------------------------------------------------------
 Polarizable Continuum Model (PCM)
 =================================
 Model                : PCM (using non-symmetric T matrix).
 Atomic radii         : UFF (Universal Force Field).
 Polarization charges : Total charges.
 Charge compensation  : None.
 Solution method      : On-the-fly selection.
 Cavity type          : Scaled VdW (van der Waals Surface) (Alpha=1.100).
 Cavity algorithm     : GePol (No added spheres)
                        Default sphere list used, NSphG=   11.
                        Lebedev-Laikov grids with approx.  5.0 points / Ang**2.
                        Smoothing algorithm: Karplus/York (Gamma=1.0000).
                        Polarization charges: spherical gaussians, with
                                              point-specific exponents (IZeta= 3).
                        Self-potential: point-specific (ISelfS= 7).
                        Self-field    : sphere-specific E.n sum rule (ISelfD= 2).
 1st derivatives      : Analytical E(r).r(x)/FMM algorithm (CHGder, D1EAlg=3).
                        Cavity 1st derivative terms included.
 Solvent              : Water, Eps=  78.355300 Eps(inf)=   1.777849
 ------------------------------------------------------------------------------
 Spheres list:
 ISph  on   Nord     Re0    Alpha      Xe            Ye            Ze
    1  Pt      1    1.3770  1.100     -0.000477      0.000193      0.000096
    2   N      2    1.8300  1.100      2.144642      0.003770      0.001089
    3   O      3    1.7500  1.100      2.727368     -0.665345      0.837645
    4   O      4    1.7500  1.100      2.726611      0.674280     -0.834887
    5   N      5    1.8300  1.100     -2.146861     -0.006180     -0.002304
    6   O      6    1.7500  1.100     -2.726277     -0.853800     -0.660201
    7   O      7    1.7500  1.100     -2.731939      0.838034      0.654977
    8  Cl      8    1.9735  1.100     -0.095139      0.514677     -2.300042
    9  Cl      9    1.9735  1.100      0.106759     -2.299593     -0.514002
   10  Cl     10    1.9735  1.100     -0.096516     -0.512211      2.300662
   11  Cl     11    1.9735  1.100      0.089991      2.300447      0.514606
 ------------------------------------------------------------------------------
 One-electron integrals computed using PRISM.
   1 Symmetry operations used in ECPInt.
 ECPInt:  NShTT=    2926 NPrTT=   13061 LenC2=    2736 LenP2D=    8694.
 LDataN:  DoStor=T MaxTD1= 6 Len=  172
 NBasis=   178 RedAO= T EigKep=  6.43D-03  NBF=   178
 NBsUse=   178 1.00D-06 EigRej= -1.00D+00 NBFU=   178
 Defaulting to unpruned grid for atomic number  78.
 Initial guess from the checkpoint file:  "/scr/guest/Gau-7365.chk"
 B after Tr=     0.000000    0.000000    0.000000
         Rot=    0.999955   -0.009432   -0.000076    0.000427 Ang=  -1.08 deg.
 ExpMin= 2.90D-02 ExpMax= 1.04D+04 ExpMxC= 1.57D+03 IAcc=3 IRadAn=         5 AccDes= 0.00D+00
 Harris functional with IExCor=  402 and IRadAn=       5 diagonalized for initial guess.
 HarFok:  IExCor=  402 AccDes= 0.00D+00 IRadAn=         5 IDoV= 1 UseB2=F ITyADJ=14
 ICtDFT=  3500011 ScaDFX=  1.000000  1.000000  1.000000  1.000000
 Defaulting to unpruned grid for atomic number  78.
 Defaulting to unpruned grid for atomic number  78.
 Defaulting to unpruned grid for atomic number  78.
 Defaulting to unpruned grid for atomic number  78.
 Defaulting to unpruned grid for atomic number  78.
 Defaulting to unpruned grid for atomic number  78.
 Defaulting to unpruned grid for atomic number  78.
 Defaulting to unpruned grid for atomic number  78.
 Defaulting to unpruned grid for atomic number  78.
 Defaulting to unpruned grid for atomic number  78.
 Defaulting to unpruned grid for atomic number  78.
 Defaulting to unpruned grid for atomic number  78.
 Defaulting to unpruned grid for atomic number  78.
 Defaulting to unpruned grid for atomic number  78.
 Defaulting to unpruned grid for atomic number  78.
 Defaulting to unpruned grid for atomic number  78.
 Defaulting to unpruned grid for atomic number  78.
 Defaulting to unpruned grid for atomic number  78.
 Defaulting to unpruned grid for atomic number  78.
 Defaulting to unpruned grid for atomic number  78.
 Defaulting to unpruned grid for atomic number  78.
 Defaulting to unpruned grid for atomic number  78.
 Defaulting to unpruned grid for atomic number  78.
 Defaulting to unpruned grid for atomic number  78.
 FoFCou: FMM=F IPFlag=           0 FMFlag=      100000 FMFlg1=           0
         NFxFlg=           0 DoJE=T BraDBF=F KetDBF=T FulRan=T
         wScrn=  0.000000 ICntrl=     500 IOpCl=  0 I1Cent=   200000004 NGrid=           0
         NMat0=    1 NMatS0=      1 NMatT0=    0 NMatD0=    1 NMtDS0=    0 NMtDT0=    0
 Petite list used in FoFCou.
 Keep R1 ints in memory in canonical form, NReq=132627282.
 Requested convergence on RMS density matrix=1.00D-08 within 128 cycles.
 Requested convergence on MAX density matrix=1.00D-06.
 Requested convergence on             energy=1.00D-06.
 No special actions if energy rises.
 Defaulting to unpruned grid for atomic number  78.
 Defaulting to unpruned grid for atomic number  78.
 Defaulting to unpruned grid for atomic number  78.
 Defaulting to unpruned grid for atomic number  78.
 Defaulting to unpruned grid for atomic number  78.
 Defaulting to unpruned grid for atomic number  78.
 Defaulting to unpruned grid for atomic number  78.
 Defaulting to unpruned grid for atomic number  78.
 Defaulting to unpruned grid for atomic number  78.
 Defaulting to unpruned grid for atomic number  78.
 Defaulting to unpruned grid for atomic number  78.
 Defaulting to unpruned grid for atomic number  78.
 Defaulting to unpruned grid for atomic number  78.
 Defaulting to unpruned grid for atomic number  78.
 Defaulting to unpruned grid for atomic number  78.
 Defaulting to unpruned grid for atomic number  78.
 Defaulting to unpruned grid for atomic number  78.
 Defaulting to unpruned grid for atomic number  78.
 Defaulting to unpruned grid for atomic number  78.
 Defaulting to unpruned grid for atomic number  78.
 Defaulting to unpruned grid for atomic number  78.
 Defaulting to unpruned grid for atomic number  78.
 Defaulting to unpruned grid for atomic number  78.
 Defaulting to unpruned grid for atomic number  78.
 Inv3:  Mode=1 IEnd=     6714048.
 Iteration    1 A*A^-1 deviation from unit magnitude is 6.66D-15 for   1081.
 Iteration    1 A*A^-1 deviation from orthogonality  is 3.28D-15 for   1373   1038.
 Iteration    1 A^-1*A deviation from unit magnitude is 6.44D-15 for    280.
 Iteration    1 A^-1*A deviation from orthogonality  is 2.76D-10 for    745    725.
 Iteration    2 A*A^-1 deviation from unit magnitude is 9.10D-15 for    275.
 Iteration    2 A*A^-1 deviation from orthogonality  is 4.37D-15 for    718     21.
 Iteration    2 A^-1*A deviation from unit magnitude is 1.78D-15 for   1038.
 Iteration    2 A^-1*A deviation from orthogonality  is 9.19D-16 for   1344    247.
 Error on total polarization charges =  0.01095
 SCF Done:  E(RB3LYP) =  -2369.78726839     A.U. after   13 cycles
            NFock= 13  Conv=0.60D-08     -V/T= 2.0387
   1 Symmetry operations used in ECPInt.
 ECPInt:  NShTT=    2926 NPrTT=   13061 LenC2=    2736 LenP2D=    8694.
 LDataN:  DoStor=T MaxTD1= 7 Len=  274
 D1PCM: PCM CHGder 1st derivatives, ID1Alg=3 FixD1E=F DoIter=F DoCFld=F I1PDM=0.
 Calling FoFJK, ICntrl=      2127 FMM=F ISym2X=0 I1Cent= 0 IOpClX= 0 NMat=1 NMatS=1 NMatT=0.
 Defaulting to unpruned grid for atomic number  78.
 Defaulting to unpruned grid for atomic number  78.
 Defaulting to unpruned grid for atomic number  78.
 Defaulting to unpruned grid for atomic number  78.
 Defaulting to unpruned grid for atomic number  78.
 Defaulting to unpruned grid for atomic number  78.
 Defaulting to unpruned grid for atomic number  78.
 Defaulting to unpruned grid for atomic number  78.
 Defaulting to unpruned grid for atomic number  78.
 Defaulting to unpruned grid for atomic number  78.
 Defaulting to unpruned grid for atomic number  78.
 Defaulting to unpruned grid for atomic number  78.
 Defaulting to unpruned grid for atomic number  78.
 Defaulting to unpruned grid for atomic number  78.
 Defaulting to unpruned grid for atomic number  78.
 Defaulting to unpruned grid for atomic number  78.
 Defaulting to unpruned grid for atomic number  78.
 Defaulting to unpruned grid for atomic number  78.
 Defaulting to unpruned grid for atomic number  78.
 Defaulting to unpruned grid for atomic number  78.
 Defaulting to unpruned grid for atomic number  78.
 Defaulting to unpruned grid for atomic number  78.
 Defaulting to unpruned grid for atomic number  78.
 Defaulting to unpruned grid for atomic number  78.
 ***** Axes restored to original set *****
 -------------------------------------------------------------------
 Center     Atomic                   Forces (Hartrees/Bohr)
 Number     Number              X              Y              Z
 -------------------------------------------------------------------
      1       78           0.000109617   -0.000042018   -0.000044941
      2        7          -0.000126643    0.000053768   -0.000374708
      3        8           0.000145000   -0.000304215    0.000401918
      4        8          -0.000159568    0.000261671    0.000424033
      5        7          -0.000113922    0.000077641   -0.000027338
      6        8          -0.000153490   -0.000172915   -0.000320720
      7        8           0.000264183    0.000158414   -0.000275214
      8       17           0.003918057   -0.013305337    0.000239244
      9       17           0.013239849    0.003884369   -0.000034830
     10       17          -0.003838109    0.013288774    0.000243876
     11       17          -0.013284974   -0.003900152   -0.000231318
 -------------------------------------------------------------------
 Cartesian Forces:  Max     0.013305337 RMS     0.004821139

 GradGradGradGradGradGradGradGradGradGradGradGradGradGradGradGradGradGrad
 Berny optimization.
 Search for a local minimum.
 Step number   2 out of a maximum of   43
 All quantities printed in internal units (Hartrees-Bohrs-Radians)
 Update second derivatives using D2CorN and points    1    2
 DE= -1.58D-02 DEPred=-1.46D-02 R= 1.08D+00
 TightC=F SS=  1.41D+00  RLast= 3.00D-01 DXNew= 5.0454D-01 8.9996D-01
 Trust test= 1.08D+00 RLast= 3.00D-01 DXMaxT set to 5.05D-01
 ITU=  1  0
     Eigenvalues ---    0.00225   0.00270   0.01493   0.01496   0.02799
     Eigenvalues ---    0.02808   0.03852   0.05145   0.05427   0.05477
     Eigenvalues ---    0.05486   0.05628   0.10380   0.10412   0.14148
     Eigenvalues ---    0.14180   0.18081   0.21916   0.28581   0.31551
     Eigenvalues ---    0.64648   0.86169   0.86205   1.53546   1.55243
     Eigenvalues ---    2.52490   2.52986
 RFO step:  Lambda=-6.67135635D-04 EMin= 2.24693565D-03
 Quartic linear search produced a step of  0.76232.
 TrRot=  0.000311 -0.000092  0.000131  0.002633 -0.000069  0.002633
 MatCor failed.
 Variable       Old X    -DE/DX   Delta X   Delta X   Delta X     New X
                                 (Linear)    (Quad)   (Total)
    X1        0.00049   0.00011   0.00050   0.00045   0.00126   0.00175
    Y1        0.00023  -0.00004  -0.00016  -0.00031  -0.00056  -0.00034
    Z1        0.00236  -0.00004   0.00021  -0.00033   0.00001   0.00237
    X2        0.02175  -0.00013   0.00156  -0.00375  -0.00162   0.02012
    Y2        0.00468   0.00005  -0.00028   0.00055   0.00029   0.00496
    Z2       -4.05128  -0.00037  -0.00769   0.01067   0.00312  -4.04816
    X3        0.41617   0.00014   0.00533   0.19622   0.19191   0.60808
    Y3        1.99332  -0.00030  -0.00079  -0.03821  -0.03587   1.95746
    Z3       -5.14685   0.00040  -0.00560   0.01103   0.00560  -5.14125
    X4       -0.36024  -0.00016  -0.00936  -0.20155  -0.20001  -0.56026
    Y4       -1.98100   0.00026   0.00125   0.03745   0.03563  -1.94537
    Z4       -5.15662   0.00042  -0.00527   0.00983   0.00465  -5.15197
    X5       -0.01487  -0.00011  -0.00046  -0.00024  -0.00066  -0.01553
    Y5       -0.00413   0.00008  -0.00064   0.00136   0.00055  -0.00359
    Z5        4.05842  -0.00003   0.00693  -0.01296  -0.00590   4.05253
    X6        1.97321  -0.00015   0.00011  -0.03665  -0.03362   1.93959
    Y6       -0.36407  -0.00017  -0.00707  -0.19861  -0.19558  -0.55964
    Z6        5.16665  -0.00032   0.00377  -0.01184  -0.00780   5.15885
    X7       -2.01199   0.00026  -0.00019   0.03576   0.03259  -1.97940
    Y7        0.35453   0.00016   0.00861   0.20009   0.19819   0.55273
    Z7        5.15076  -0.00028   0.00430  -0.01105  -0.00675   5.14401
    X8        1.15434   0.00392   0.03309   0.06404   0.12056   1.27490
    Y8       -4.30169  -0.01331  -0.10917   0.01442  -0.08819  -4.38988
    Z8        0.18296   0.00024   0.00015  -0.00858  -0.00822   0.17474
    X9        4.30250   0.01324   0.10969  -0.01431   0.08906   4.39157
    Y9        1.15594   0.00388   0.03283   0.06100   0.11688   1.27282
    Z9       -0.16876  -0.00003   0.00360   0.01314   0.01718  -0.15158
   X10       -1.15972  -0.00384  -0.03203  -0.05841  -0.11326  -1.27299
   Y10        4.30050   0.01329   0.10889  -0.01429   0.08786   4.38837
   Z10        0.18209   0.00024   0.00006  -0.00842  -0.00832   0.17377
   X11       -4.30008  -0.01328  -0.10823   0.01506  -0.08621  -4.38629
   Y11       -1.15466  -0.00390  -0.03347  -0.06254  -0.11921  -1.27387
   Z11       -0.20013  -0.00023  -0.00045   0.00706   0.00644  -0.19369
         Item               Value     Threshold  Converged?
 Maximum Force            0.013305     0.002500     NO 
 RMS     Force            0.004821     0.001667     NO 
 Maximum Displacement     0.200013     0.010000     NO 
 RMS     Displacement     0.086321     0.006667     NO 
 Predicted change in Energy=-1.752905D-03
 GradGradGradGradGradGradGradGradGradGradGradGradGradGradGradGradGradGrad

                          Input orientation:                          
 ---------------------------------------------------------------------
 Center     Atomic      Atomic             Coordinates (Angstroms)
 Number     Number       Type             X           Y           Z
 ---------------------------------------------------------------------
      1         78           0        0.000924   -0.000178    0.001253
      2          7           0        0.010650    0.002627   -2.142195
      3          8           0        0.321783    1.035843   -2.720633
      4          8           0       -0.296475   -1.029444   -2.726305
      5          7           0       -0.008219   -0.001898    2.144504
      6          8           0        1.026388   -0.296149    2.729946
      7          8           0       -1.047452    0.292490    2.722091
      8         17           0        0.674650   -2.323023    0.092471
      9         17           0        2.323916    0.673545   -0.080215
     10         17           0       -0.673636    2.322224    0.091955
     11         17           0       -2.321125   -0.674102   -0.102494
 ---------------------------------------------------------------------
                    Distance matrix (angstroms):
                    1          2          3          4          5
     1  Pt   0.000000
     2  N    2.143471   0.000000
     3  O    2.930008   1.224307   0.000000
     4  O    2.930428   1.225023   2.155849   0.000000
     5  N    2.143272   4.286743   4.985515   4.986354   0.000000
     6  O    2.930007   4.985855   5.655040   5.662011   1.224638
     7  O    2.930479   4.986469   5.661327   5.656545   1.224858
     8  Cl   2.420297   3.292913   4.395457   3.249912   3.172503
     9  Cl   2.420089   3.170662   3.333407   4.094926   3.293091
    10  Cl   2.420085   3.292446   3.249043   4.395284   3.171321
    11  Cl   2.420093   3.171043   4.094328   3.333146   3.293993
                    6          7          8          9         10
     6  O    0.000000
     7  O    2.155776   0.000000
     8  Cl   3.344879   4.089186   0.000000
     9  Cl   3.243592   4.400482   3.424810   0.000000
    10  Cl   4.087169   3.343228   4.836961   3.425362   0.000000
    11  Cl   4.401296   3.245739   3.425145   4.836637   3.424909
                   11
    11  Cl   0.000000
 Stoichiometry    Cl4N2O4Pt(2-)
 Framework group  C1[X(Cl4N2O4Pt)]
 Deg. of freedom    27
 Full point group                 C1      NOp   1
 Largest Abelian subgroup         C1      NOp   1
 Largest concise Abelian subgroup C1      NOp   1
                         Standard orientation:                         
 ---------------------------------------------------------------------
 Center     Atomic      Atomic             Coordinates (Angstroms)
 Number     Number       Type             X           Y           Z
 ---------------------------------------------------------------------
      1         78           0       -0.000295    0.000104   -0.000089
      2          7           0        2.143175   -0.002080    0.001238
      3          8           0        2.723129   -0.746910    0.780860
      4          8           0        2.725776    0.742865   -0.777424
      5          7           0       -2.143567    0.001277   -0.000713
      6          8           0       -2.725044   -0.788493   -0.734120
      7          8           0       -2.725127    0.790898    0.733155
      8         17           0       -0.089561    0.455965   -2.375390
      9         17           0        0.090455   -2.374879   -0.456214
     10         17           0       -0.092952   -0.455470    2.374922
     11         17           0        0.094170    2.375009    0.455710
 ---------------------------------------------------------------------
 Rotational constants (GHZ):      0.5663018      0.4810519      0.4806055
 Basis read from rwf:  (5D, 7F)
 Pseudo-potential data read from rwf file.
 There are   190 symmetry adapted cartesian basis functions of A   symmetry.
 There are   178 symmetry adapted basis functions of A   symmetry.
   178 basis functions,   341 primitive gaussians,   190 cartesian basis functions
    67 alpha electrons       67 beta electrons
       nuclear repulsion energy      1324.2903781806 Hartrees.
 NAtoms=   11 NActive=   11 NUniq=   11 SFac= 1.00D+00 NAtFMM=   60 NAOKFM=F Big=F
 Integral buffers will be    131072 words long.
 Raffenetti 2 integral format.
 Two-electron integral symmetry is turned on.
 ------------------------------------------------------------------------------
 Polarizable Continuum Model (PCM)
 =================================
 Model                : PCM (using non-symmetric T matrix).
 Atomic radii         : UFF (Universal Force Field).
 Polarization charges : Total charges.
 Charge compensation  : None.
 Solution method      : On-the-fly selection.
 Cavity type          : Scaled VdW (van der Waals Surface) (Alpha=1.100).
 Cavity algorithm     : GePol (No added spheres)
                        Default sphere list used, NSphG=   11.
                        Lebedev-Laikov grids with approx.  5.0 points / Ang**2.
                        Smoothing algorithm: Karplus/York (Gamma=1.0000).
                        Polarization charges: spherical gaussians, with
                                              point-specific exponents (IZeta= 3).
                        Self-potential: point-specific (ISelfS= 7).
                        Self-field    : sphere-specific E.n sum rule (ISelfD= 2).
 1st derivatives      : Analytical E(r).r(x)/FMM algorithm (CHGder, D1EAlg=3).
                        Cavity 1st derivative terms included.
 Solvent              : Water, Eps=  78.355300 Eps(inf)=   1.777849
 ------------------------------------------------------------------------------
 Spheres list:
 ISph  on   Nord     Re0    Alpha      Xe            Ye            Ze
    1  Pt      1    1.3770  1.100     -0.000295      0.000104     -0.000089
    2   N      2    1.8300  1.100      2.143175     -0.002080      0.001238
    3   O      3    1.7500  1.100      2.723129     -0.746910      0.780860
    4   O      4    1.7500  1.100      2.725776      0.742865     -0.777424
    5   N      5    1.8300  1.100     -2.143567      0.001277     -0.000713
    6   O      6    1.7500  1.100     -2.725044     -0.788493     -0.734120
    7   O      7    1.7500  1.100     -2.725127      0.790898      0.733155
    8  Cl      8    1.9735  1.100     -0.089561      0.455965     -2.375390
    9  Cl      9    1.9735  1.100      0.090455     -2.374879     -0.456214
   10  Cl     10    1.9735  1.100     -0.092952     -0.455470      2.374922
   11  Cl     11    1.9735  1.100      0.094170      2.375009      0.455710
 ------------------------------------------------------------------------------
 One-electron integrals computed using PRISM.
   1 Symmetry operations used in ECPInt.
 ECPInt:  NShTT=    2926 NPrTT=   13061 LenC2=    2724 LenP2D=    8647.
 LDataN:  DoStor=T MaxTD1= 6 Len=  172
 NBasis=   178 RedAO= T EigKep=  6.52D-03  NBF=   178
 NBsUse=   178 1.00D-06 EigRej= -1.00D+00 NBFU=   178
 Defaulting to unpruned grid for atomic number  78.
 Initial guess from the checkpoint file:  "/scr/guest/Gau-7365.chk"
 B after Tr=     0.000000    0.000000    0.000000
         Rot=    0.999949    0.009964   -0.000190    0.001720 Ang=   1.16 deg.
 ExpMin= 2.90D-02 ExpMax= 1.04D+04 ExpMxC= 1.57D+03 IAcc=3 IRadAn=         5 AccDes= 0.00D+00
 Harris functional with IExCor=  402 and IRadAn=       5 diagonalized for initial guess.
 HarFok:  IExCor=  402 AccDes= 0.00D+00 IRadAn=         5 IDoV= 1 UseB2=F ITyADJ=14
 ICtDFT=  3500011 ScaDFX=  1.000000  1.000000  1.000000  1.000000
 Defaulting to unpruned grid for atomic number  78.
 Defaulting to unpruned grid for atomic number  78.
 Defaulting to unpruned grid for atomic number  78.
 Defaulting to unpruned grid for atomic number  78.
 Defaulting to unpruned grid for atomic number  78.
 Defaulting to unpruned grid for atomic number  78.
 Defaulting to unpruned grid for atomic number  78.
 Defaulting to unpruned grid for atomic number  78.
 Defaulting to unpruned grid for atomic number  78.
 Defaulting to unpruned grid for atomic number  78.
 Defaulting to unpruned grid for atomic number  78.
 Defaulting to unpruned grid for atomic number  78.
 Defaulting to unpruned grid for atomic number  78.
 Defaulting to unpruned grid for atomic number  78.
 Defaulting to unpruned grid for atomic number  78.
 Defaulting to unpruned grid for atomic number  78.
 Defaulting to unpruned grid for atomic number  78.
 Defaulting to unpruned grid for atomic number  78.
 Defaulting to unpruned grid for atomic number  78.
 Defaulting to unpruned grid for atomic number  78.
 Defaulting to unpruned grid for atomic number  78.
 Defaulting to unpruned grid for atomic number  78.
 Defaulting to unpruned grid for atomic number  78.
 Defaulting to unpruned grid for atomic number  78.
 FoFCou: FMM=F IPFlag=           0 FMFlag=      100000 FMFlg1=           0
         NFxFlg=           0 DoJE=T BraDBF=F KetDBF=T FulRan=T
         wScrn=  0.000000 ICntrl=     500 IOpCl=  0 I1Cent=   200000004 NGrid=           0
         NMat0=    1 NMatS0=      1 NMatT0=    0 NMatD0=    1 NMtDS0=    0 NMtDT0=    0
 Petite list used in FoFCou.
 Keep R1 ints in memory in canonical form, NReq=132730356.
 Requested convergence on RMS density matrix=1.00D-08 within 128 cycles.
 Requested convergence on MAX density matrix=1.00D-06.
 Requested convergence on             energy=1.00D-06.
 No special actions if energy rises.
 Defaulting to unpruned grid for atomic number  78.
 Defaulting to unpruned grid for atomic number  78.
 Defaulting to unpruned grid for atomic number  78.
 Defaulting to unpruned grid for atomic number  78.
 Defaulting to unpruned grid for atomic number  78.
 Defaulting to unpruned grid for atomic number  78.
 Defaulting to unpruned grid for atomic number  78.
 Defaulting to unpruned grid for atomic number  78.
 Defaulting to unpruned grid for atomic number  78.
 Defaulting to unpruned grid for atomic number  78.
 Defaulting to unpruned grid for atomic number  78.
 Defaulting to unpruned grid for atomic number  78.
 Defaulting to unpruned grid for atomic number  78.
 Defaulting to unpruned grid for atomic number  78.
 Defaulting to unpruned grid for atomic number  78.
 Defaulting to unpruned grid for atomic number  78.
 Defaulting to unpruned grid for atomic number  78.
 Defaulting to unpruned grid for atomic number  78.
 Defaulting to unpruned grid for atomic number  78.
 Defaulting to unpruned grid for atomic number  78.
 Defaulting to unpruned grid for atomic number  78.
 Defaulting to unpruned grid for atomic number  78.
 Defaulting to unpruned grid for atomic number  78.
 Defaulting to unpruned grid for atomic number  78.
 Inv3:  Mode=1 IEnd=     7013523.
 Iteration    1 A*A^-1 deviation from unit magnitude is 6.66D-15 for   1243.
 Iteration    1 A*A^-1 deviation from orthogonality  is 3.19D-15 for    749     22.
 Iteration    1 A^-1*A deviation from unit magnitude is 6.11D-15 for    236.
 Iteration    1 A^-1*A deviation from orthogonality  is 1.13D-13 for   1128    697.
 Error on total polarization charges =  0.01083
 SCF Done:  E(RB3LYP) =  -2369.79030216     A.U. after   14 cycles
            NFock= 14  Conv=0.82D-08     -V/T= 2.0388
   1 Symmetry operations used in ECPInt.
 ECPInt:  NShTT=    2926 NPrTT=   13061 LenC2=    2724 LenP2D=    8647.
 LDataN:  DoStor=T MaxTD1= 7 Len=  274
 D1PCM: PCM CHGder 1st derivatives, ID1Alg=3 FixD1E=F DoIter=F DoCFld=F I1PDM=0.
 Calling FoFJK, ICntrl=      2127 FMM=F ISym2X=0 I1Cent= 0 IOpClX= 0 NMat=1 NMatS=1 NMatT=0.
 Defaulting to unpruned grid for atomic number  78.
 Defaulting to unpruned grid for atomic number  78.
 Defaulting to unpruned grid for atomic number  78.
 Defaulting to unpruned grid for atomic number  78.
 Defaulting to unpruned grid for atomic number  78.
 Defaulting to unpruned grid for atomic number  78.
 Defaulting to unpruned grid for atomic number  78.
 Defaulting to unpruned grid for atomic number  78.
 Defaulting to unpruned grid for atomic number  78.
 Defaulting to unpruned grid for atomic number  78.
 Defaulting to unpruned grid for atomic number  78.
 Defaulting to unpruned grid for atomic number  78.
 Defaulting to unpruned grid for atomic number  78.
 Defaulting to unpruned grid for atomic number  78.
 Defaulting to unpruned grid for atomic number  78.
 Defaulting to unpruned grid for atomic number  78.
 Defaulting to unpruned grid for atomic number  78.
 Defaulting to unpruned grid for atomic number  78.
 Defaulting to unpruned grid for atomic number  78.
 Defaulting to unpruned grid for atomic number  78.
 Defaulting to unpruned grid for atomic number  78.
 Defaulting to unpruned grid for atomic number  78.
 Defaulting to unpruned grid for atomic number  78.
 Defaulting to unpruned grid for atomic number  78.
 ***** Axes restored to original set *****
 -------------------------------------------------------------------
 Center     Atomic                   Forces (Hartrees/Bohr)
 Number     Number              X              Y              Z
 -------------------------------------------------------------------
      1       78           0.000040754   -0.000034599   -0.000140836
      2        7          -0.000271501   -0.000579536   -0.003725023
      3        8          -0.002263180   -0.007977148    0.002675732
      4        8           0.002496975    0.008551594    0.003060896
      5        7          -0.000182956    0.000101653    0.003899858
      6        8          -0.008273337    0.002161097   -0.002862979
      7        8           0.008454143   -0.002281425   -0.002928397
      8       17          -0.000073457    0.001270551   -0.000969039
      9       17          -0.001232066   -0.000019235    0.000969853
     10       17           0.000076349   -0.001232772   -0.000982619
     11       17           0.001228276    0.000039821    0.001002555
 -------------------------------------------------------------------
 Cartesian Forces:  Max     0.008551594 RMS     0.003352083

 GradGradGradGradGradGradGradGradGradGradGradGradGradGradGradGradGradGrad
 Berny optimization.
 Search for a local minimum.
 Step number   3 out of a maximum of   43
 All quantities printed in internal units (Hartrees-Bohrs-Radians)
 Update second derivatives using D2CorN and points    2    3
 DE= -3.03D-03 DEPred=-1.75D-03 R= 1.73D+00
 TightC=F SS=  1.41D+00  RLast= 4.96D-01 DXNew= 8.4853D-01 1.4876D+00
 Trust test= 1.73D+00 RLast= 4.96D-01 DXMaxT set to 8.49D-01
 ITU=  1  1  0
     Eigenvalues ---    0.00224   0.00339   0.01493   0.01495   0.02785
     Eigenvalues ---    0.02794   0.03849   0.05145   0.05427   0.05475
     Eigenvalues ---    0.05485   0.05603   0.10375   0.10407   0.14147
     Eigenvalues ---    0.14179   0.17127   0.21916   0.28581   0.31565
     Eigenvalues ---    0.64648   0.86169   0.86204   1.53508   1.55243
     Eigenvalues ---    2.52484   2.52980
 RFO step:  Lambda=-4.65027277D-04 EMin= 2.24495606D-03
 Quartic linear search produced a step of -0.11703.
 TrRot= -0.000052  0.000119 -0.000013 -0.000525  0.000017 -0.000525
 Variable       Old X    -DE/DX   Delta X   Delta X   Delta X     New X
                                 (Linear)    (Quad)   (Total)
    X1        0.00175   0.00004  -0.00015  -0.00033  -0.00053   0.00121
    Y1       -0.00034  -0.00003   0.00007   0.00044   0.00062   0.00028
    Z1        0.00237  -0.00014   0.00000  -0.00018  -0.00019   0.00217
    X2        0.02012  -0.00027   0.00019  -0.00149  -0.00141   0.01871
    Y2        0.00496  -0.00058  -0.00003  -0.00016  -0.00009   0.00487
    Z2       -4.04816  -0.00373  -0.00036   0.01203   0.01166  -4.03651
    X3        0.60808  -0.00226  -0.02246  -0.04919  -0.06974   0.53835
    Y3        1.95746  -0.00798   0.00420  -0.00211   0.00165   1.95911
    Z3       -5.14125   0.00268  -0.00066   0.00706   0.00638  -5.13487
    X4       -0.56026   0.00250   0.02341   0.05247   0.07370  -0.48656
    Y4       -1.94537   0.00855  -0.00417   0.00093  -0.00261  -1.94798
    Z4       -5.15197   0.00306  -0.00054   0.00874   0.00819  -5.14378
    X5       -0.01553  -0.00018   0.00008   0.00020   0.00028  -0.01525
    Y5       -0.00359   0.00010  -0.00006   0.00042   0.00049  -0.00310
    Z5        4.05253   0.00390   0.00069  -0.01193  -0.01125   4.04127
    X6        1.93959  -0.00827   0.00393  -0.00487  -0.00143   1.93816
    Y6       -0.55964   0.00216   0.02289   0.03468   0.05566  -0.50398
    Z6        5.15885  -0.00286   0.00091  -0.00778  -0.00691   5.15193
    X7       -1.97940   0.00845  -0.00381   0.00486   0.00159  -1.97780
    Y7        0.55273  -0.00228  -0.02319  -0.03786  -0.05886   0.49387
    Z7        5.14401  -0.00293   0.00079  -0.00771  -0.00690   5.13711
    X8        1.27490  -0.00007  -0.01411  -0.01186  -0.03062   1.24428
    Y8       -4.38988   0.00127   0.01032  -0.00485   0.00428  -4.38560
    Z8        0.17474  -0.00097   0.00096  -0.01400  -0.01307   0.16167
    X9        4.39157  -0.00123  -0.01042   0.00493  -0.00424   4.38733
    Y9        1.27282  -0.00002  -0.01368  -0.01052  -0.02868   1.24413
    Z9       -0.15158   0.00097  -0.00201   0.01323   0.01114  -0.14045
   X10       -1.27299   0.00008   0.01326   0.01170   0.02951  -1.24348
   Y10        4.38837  -0.00123  -0.01028   0.00599  -0.00287   4.38550
   Z10        0.17377  -0.00098   0.00097  -0.01432  -0.01334   0.16043
   X11       -4.38629   0.00123   0.01009  -0.00584   0.00289  -4.38340
   Y11       -1.27387   0.00004   0.01395   0.01175   0.03042  -1.24345
   Z11       -0.19369   0.00100  -0.00075   0.01500   0.01431  -0.17938
         Item               Value     Threshold  Converged?
 Maximum Force            0.008552     0.002500     NO 
 RMS     Force            0.003352     0.001667     NO 
 Maximum Displacement     0.073696     0.010000     NO 
 RMS     Displacement     0.025600     0.006667     NO 
 Predicted change in Energy=-3.654951D-04
 GradGradGradGradGradGradGradGradGradGradGradGradGradGradGradGradGradGrad

                          Input orientation:                          
 ---------------------------------------------------------------------
 Center     Atomic      Atomic             Coordinates (Angstroms)
 Number     Number       Type             X           Y           Z
 ---------------------------------------------------------------------
      1         78           0        0.000642    0.000150    0.001150
      2          7           0        0.009903    0.002577   -2.136027
      3          8           0        0.284880    1.036714   -2.717256
      4          8           0       -0.257477   -1.030825   -2.721971
      5          7           0       -0.008068   -0.001638    2.138549
      6          8           0        1.025632   -0.266696    2.726286
      7          8           0       -1.046609    0.261342    2.718441
      8         17           0        0.658445   -2.320757    0.085552
      9         17           0        2.321673    0.658367   -0.074321
     10         17           0       -0.658021    2.320707    0.084896
     11         17           0       -2.319596   -0.658007   -0.094922
 ---------------------------------------------------------------------
                    Distance matrix (angstroms):
                    1          2          3          4          5
     1  Pt   0.000000
     2  N    2.137198   0.000000
     3  O    2.923180   1.217735   0.000000
     4  O    2.923169   1.217679   2.137497   0.000000
     5  N    2.137418   4.274616   4.974217   4.974544   0.000000
     6  O    2.923727   4.974566   5.646215   5.649227   1.218288
     7  O    2.923804   4.974840   5.649855   5.647168   1.218195
     8  Cl   2.413802   3.279314   4.389521   3.222580   3.168178
     9  Cl   2.413738   3.166224   3.358092   4.063919   3.280259
    10  Cl   2.413677   3.279077   3.223314   4.389955   3.167526
    11  Cl   2.413691   3.166867   4.065957   3.360463   3.280606
                    6          7          8          9         10
     6  O    0.000000
     7  O    2.138473   0.000000
     8  Cl   3.365631   4.062826   0.000000
     9  Cl   3.221625   4.393458   3.415709   0.000000
    10  Cl   4.062793   3.365642   4.824549   3.415744   0.000000
    11  Cl   4.393505   3.221912   3.415557   4.824380   3.415538
                   11
    11  Cl   0.000000
 Stoichiometry    Cl4N2O4Pt(2-)
 Framework group  C1[X(Cl4N2O4Pt)]
 Deg. of freedom    27
 Full point group                 C1      NOp   1
 Largest Abelian subgroup         C1      NOp   1
 Largest concise Abelian subgroup C1      NOp   1
                         Standard orientation:                         
 ---------------------------------------------------------------------
 Center     Atomic      Atomic             Coordinates (Angstroms)
 Number     Number       Type             X           Y           Z
 ---------------------------------------------------------------------
      1         78           0       -0.000256    0.000149    0.000089
      2          7           0        2.136942    0.001283    0.001149
      3          8           0        2.720540   -0.738026    0.772974
      4          8           0        2.720539    0.739278   -0.771845
      5          7           0       -2.137673   -0.001778   -0.000680
      6          8           0       -2.720449   -0.779948   -0.734880
      7          8           0       -2.722537    0.775946    0.732177
      8         17           0       -0.083569    0.550484   -2.348662
      9         17           0        0.087538   -2.348379   -0.550221
     10         17           0       -0.085093   -0.550081    2.348681
     11         17           0        0.083495    2.348790    0.550341
 ---------------------------------------------------------------------
 Rotational constants (GHZ):      0.5697439      0.4831932      0.4829681
 Basis read from rwf:  (5D, 7F)
 Pseudo-potential data read from rwf file.
 There are   190 symmetry adapted cartesian basis functions of A   symmetry.
 There are   178 symmetry adapted basis functions of A   symmetry.
   178 basis functions,   341 primitive gaussians,   190 cartesian basis functions
    67 alpha electrons       67 beta electrons
       nuclear repulsion energy      1328.0453487437 Hartrees.
 NAtoms=   11 NActive=   11 NUniq=   11 SFac= 1.00D+00 NAtFMM=   60 NAOKFM=F Big=F
 Integral buffers will be    131072 words long.
 Raffenetti 2 integral format.
 Two-electron integral symmetry is turned on.
 ------------------------------------------------------------------------------
 Polarizable Continuum Model (PCM)
 =================================
 Model                : PCM (using non-symmetric T matrix).
 Atomic radii         : UFF (Universal Force Field).
 Polarization charges : Total charges.
 Charge compensation  : None.
 Solution method      : On-the-fly selection.
 Cavity type          : Scaled VdW (van der Waals Surface) (Alpha=1.100).
 Cavity algorithm     : GePol (No added spheres)
                        Default sphere list used, NSphG=   11.
                        Lebedev-Laikov grids with approx.  5.0 points / Ang**2.
                        Smoothing algorithm: Karplus/York (Gamma=1.0000).
                        Polarization charges: spherical gaussians, with
                                              point-specific exponents (IZeta= 3).
                        Self-potential: point-specific (ISelfS= 7).
                        Self-field    : sphere-specific E.n sum rule (ISelfD= 2).
 1st derivatives      : Analytical E(r).r(x)/FMM algorithm (CHGder, D1EAlg=3).
                        Cavity 1st derivative terms included.
 Solvent              : Water, Eps=  78.355300 Eps(inf)=   1.777849
 ------------------------------------------------------------------------------
 Spheres list:
 ISph  on   Nord     Re0    Alpha      Xe            Ye            Ze
    1  Pt      1    1.3770  1.100     -0.000256      0.000149      0.000089
    2   N      2    1.8300  1.100      2.136942      0.001283      0.001149
    3   O      3    1.7500  1.100      2.720540     -0.738026      0.772974
    4   O      4    1.7500  1.100      2.720539      0.739278     -0.771845
    5   N      5    1.8300  1.100     -2.137673     -0.001778     -0.000680
    6   O      6    1.7500  1.100     -2.720449     -0.779948     -0.734880
    7   O      7    1.7500  1.100     -2.722537      0.775946      0.732177
    8  Cl      8    1.9735  1.100     -0.083569      0.550484     -2.348662
[...]
 Defaulting to unpruned grid for atomic number  78.
 Defaulting to unpruned grid for atomic number  78.
 Defaulting to unpruned grid for atomic number  78.
 Defaulting to unpruned grid for atomic number  78.
 Defaulting to unpruned grid for atomic number  78.
 Defaulting to unpruned grid for atomic number  78.
 Defaulting to unpruned grid for atomic number  78.
 Defaulting to unpruned grid for atomic number  78.
 Defaulting to unpruned grid for atomic number  78.
 Defaulting to unpruned grid for atomic number  78.
 Inv3:  Mode=1 IEnd=     6840300.
 Iteration    1 A*A^-1 deviation from unit magnitude is 6.66D-15 for   1095.
 Iteration    1 A*A^-1 deviation from orthogonality  is 2.86D-15 for   1432    955.
 Iteration    1 A^-1*A deviation from unit magnitude is 6.00D-15 for   1025.
 Iteration    1 A^-1*A deviation from orthogonality  is 1.56D-15 for   1346   1327.
 Error on total polarization charges =  0.01084
 SCF Done:  E(RB3LYP) =  -2369.78913266     A.U. after   12 cycles
            NFock= 12  Conv=0.98D-08     -V/T= 2.0388
   1 Symmetry operations used in ECPInt.
 ECPInt:  NShTT=    2926 NPrTT=   13061 LenC2=    2724 LenP2D=    8664.
 LDataN:  DoStor=T MaxTD1= 7 Len=  274
 D1PCM: PCM CHGder 1st derivatives, ID1Alg=3 FixD1E=F DoIter=F DoCFld=F I1PDM=0.
 Calling FoFJK, ICntrl=      2127 FMM=F ISym2X=0 I1Cent= 0 IOpClX= 0 NMat=1 NMatS=1 NMatT=0.
 Defaulting to unpruned grid for atomic number  78.
 Defaulting to unpruned grid for atomic number  78.
 Defaulting to unpruned grid for atomic number  78.
 Defaulting to unpruned grid for atomic number  78.
 Defaulting to unpruned grid for atomic number  78.
 Defaulting to unpruned grid for atomic number  78.
 Defaulting to unpruned grid for atomic number  78.
 Defaulting to unpruned grid for atomic number  78.
 Defaulting to unpruned grid for atomic number  78.
 Defaulting to unpruned grid for atomic number  78.
 Defaulting to unpruned grid for atomic number  78.
 Defaulting to unpruned grid for atomic number  78.
 Defaulting to unpruned grid for atomic number  78.
 Defaulting to unpruned grid for atomic number  78.
 Defaulting to unpruned grid for atomic number  78.
 Defaulting to unpruned grid for atomic number  78.
 Defaulting to unpruned grid for atomic number  78.
 Defaulting to unpruned grid for atomic number  78.
 Defaulting to unpruned grid for atomic number  78.
 Defaulting to unpruned grid for atomic number  78.
 Defaulting to unpruned grid for atomic number  78.
 Defaulting to unpruned grid for atomic number  78.
 Defaulting to unpruned grid for atomic number  78.
 Defaulting to unpruned grid for atomic number  78.
 ***** Axes restored to original set *****
 -------------------------------------------------------------------
 Center     Atomic                   Forces (Hartrees/Bohr)
 Number     Number              X              Y              Z
 -------------------------------------------------------------------
      1       78           0.000649311    0.000363497    0.000005966
      2        7          -0.013603619   -0.034712168    0.000540925
      3        8           0.007043168    0.017597814   -0.009799695
      4        8           0.006138735    0.016934965    0.009495910
      5        7          -0.036618189    0.012467408   -0.000785529
      6        8           0.018368536   -0.006852670    0.010308058
      7        8           0.017841107   -0.005749101   -0.009742631
      8       17           0.000385763    0.000080093    0.000064534
      9       17          -0.000112632    0.000239212    0.000190486
     10       17          -0.000145696   -0.000076952   -0.000371325
     11       17           0.000053516   -0.000292098    0.000093301
 -------------------------------------------------------------------
 Cartesian Forces:  Max     0.036618189 RMS     0.011928041

 GradGradGradGradGradGradGradGradGradGradGradGradGradGradGradGradGradGrad
 Berny optimization.
 Search for a local minimum.
 Step number  43 out of a maximum of   43
 All quantities printed in internal units (Hartrees-Bohrs-Radians)
 Update second derivatives using D2CorN and points    5   12   11   13   14
                                                         15   18   19   20   21

                                                         22   42   43   17
 ITU=  0  0  0  0  0  0  0  0  0  0  0  0  0  0  0  0  0  0  0  0
 ITU=  0  0  0  0  0 -1  0  0  1  0  0 -1  0  0
 Skip linear search -- no minimum in search direction.
 Steepest descent instead of Quadratic search.
 Steepest descent step scaled to max of 0.05000.
 TrRot=  0.000000  0.000000  0.000000 -0.000016  0.000001 -0.000016
 Variable       Old X    -DE/DX   Delta X   Delta X   Delta X     New X
                                 (Linear)    (Quad)   (Total)
    X1        0.00123   0.00065   0.00000   0.00089   0.00089   0.00212
    Y1        0.00034   0.00036   0.00000   0.00050   0.00050   0.00083
    Z1        0.00169   0.00001   0.00000   0.00001   0.00001   0.00170
    X2        0.02927  -0.01360   0.00000  -0.01857  -0.01858   0.01069
    Y2        0.02870  -0.03471   0.00000  -0.04740  -0.04740  -0.01870
    Z2       -4.02958   0.00054   0.00000   0.00074   0.00074  -4.02884
    X3        0.72797   0.00704   0.00000   0.00962   0.00967   0.73765
    Y3        1.89229   0.01760   0.00000   0.02403   0.02401   1.91630
    Z3       -5.11915  -0.00980   0.00000  -0.01338  -0.01338  -5.13253
    X4       -0.68764   0.00614   0.00000   0.00838   0.00832  -0.67933
    Y4       -1.90570   0.01693   0.00000   0.02312   0.02315  -1.88256
    Z4       -5.14213   0.00950   0.00000   0.01297   0.01297  -5.12917
    X5        0.01023  -0.03662   0.00000  -0.05000  -0.05000  -0.03976
    Y5       -0.01299   0.01247   0.00000   0.01702   0.01702   0.00403
    Z5        4.03370  -0.00079   0.00000  -0.00107  -0.00107   4.03263
    X6        1.87641   0.01837   0.00000   0.02508   0.02507   1.90147
    Y6       -0.68239  -0.00685   0.00000  -0.00936  -0.00942  -0.69181
    Z6        5.13461   0.01031   0.00000   0.01408   0.01407   5.14868
    X7       -1.94136   0.01784   0.00000   0.02436   0.02439  -1.91697
    Y7        0.67970  -0.00575   0.00000  -0.00785  -0.00779   0.67191
    Z7        5.13498  -0.00974   0.00000  -0.01330  -0.01330   5.12168
    X8        1.32874   0.00039   0.00000   0.00053   0.00039   1.32913
    Y8       -4.36326   0.00008   0.00000   0.00011   0.00007  -4.36319
    Z8        0.08812   0.00006   0.00000   0.00009   0.00009   0.08821
    X9        4.36543  -0.00011   0.00000  -0.00015  -0.00011   4.36532
    Y9        1.33098   0.00024   0.00000   0.00033   0.00019   1.33117
    Z9       -0.06409   0.00019   0.00000   0.00026   0.00025  -0.06384
   X10       -1.32702  -0.00015   0.00000  -0.00020  -0.00006  -1.32707
   Y10        4.36394  -0.00008   0.00000  -0.00011  -0.00006   4.36388
   Z10        0.08591  -0.00037   0.00000  -0.00051  -0.00051   0.08540
   X11       -4.36173   0.00005   0.00000   0.00007   0.00003  -4.36170
   Y11       -1.32795  -0.00029   0.00000  -0.00040  -0.00026  -1.32821
   Z11       -0.10445   0.00009   0.00000   0.00013   0.00013  -0.10432
         Item               Value     Threshold  Converged?
 Maximum Force            0.036618     0.002500     NO 
 RMS     Force            0.011928     0.001667     NO 
 Maximum Displacement     0.049995     0.010000     NO 
 RMS     Displacement     0.016287     0.006667     NO 
 Predicted change in Energy=-1.558270D-03
 Optimization stopped.
    -- Number of steps exceeded,  NStep=  43
    -- Flag reset to prevent archiving.
 GradGradGradGradGradGradGradGradGradGradGradGradGradGradGradGradGradGrad

                          Input orientation:                          
 ---------------------------------------------------------------------
 Center     Atomic      Atomic             Coordinates (Angstroms)
 Number     Number       Type             X           Y           Z
 ---------------------------------------------------------------------
      1         78           0        0.000652    0.000178    0.000897
      2          7           0        0.015490    0.015185   -2.132362
      3          8           0        0.385227    1.001358   -2.708939
      4          8           0       -0.363885   -1.008454   -2.721100
      5          7           0        0.005415   -0.006875    2.134542
      6          8           0        0.992952   -0.361104    2.717119
      7          8           0       -1.027322    0.359681    2.717316
      8         17           0        0.703141   -2.308937    0.046632
      9         17           0        2.310088    0.704323   -0.033916
     10         17           0       -0.702226    2.309300    0.045461
     11         17           0       -2.308127   -0.702723   -0.055272
 ---------------------------------------------------------------------
                    Distance matrix (angstroms):
                    1          2          3          4          5
     1  Pt   0.000000
     2  N    2.133363   0.000000
     3  O    2.914356   1.200701   0.000000
     4  O    2.925661   1.240312   2.144915   0.000000
     5  N    2.133662   4.266973   4.961864   4.971600   0.000000
     6  O    2.914283   4.961299   5.627409   5.642188   1.200042
     7  O    2.926586   4.972475   5.643694   5.646974   1.241183
     8  Cl   2.414041   3.259206   4.318830   3.238849   3.185228
     9  Cl   2.414649   3.184896   3.308937   4.159891   3.243383
    10  Cl   2.414139   3.243608   3.237280   4.333108   3.198388
    11  Cl   2.414060   3.198264   4.147288   3.313637   3.260670
                    6          7          8          9         10
     6  O    0.000000
     7  O    2.145003   0.000000
     8  Cl   3.318063   4.153141   0.000000
     9  Cl   3.230817   4.338936   3.415919   0.000000
    10  Cl   4.140343   3.323479   4.827336   3.414131   0.000000
    11  Cl   4.324346   3.233637   3.414388   4.827851   3.414872
                   11
    11  Cl   0.000000
 Stoichiometry    Cl4N2O4Pt(2-)
 Framework group  C1[X(Cl4N2O4Pt)]
 Deg. of freedom    27
 Full point group                 C1      NOp   1
 Largest Abelian subgroup         C1      NOp   1
 Largest concise Abelian subgroup C1      NOp   1
                         Standard orientation:                         
 ---------------------------------------------------------------------
 Center     Atomic      Atomic             Coordinates (Angstroms)
 Number     Number       Type             X           Y           Z
 ---------------------------------------------------------------------
      1         78           0       -0.000013    0.000083    0.000030
      2          7           0        2.133276   -0.011099    0.013804
      3          8           0        2.710780   -0.826045    0.680164
      4          8           0        2.721058    0.836127   -0.675468
      5          7           0       -2.133587   -0.009670   -0.016788
      6          8           0       -2.710109   -0.685294   -0.823794
      7          8           0       -2.722668    0.693698    0.819150
      8         17           0       -0.039008    0.560703   -2.347688
      9         17           0        0.047118   -2.348407   -0.559346
     10         17           0       -0.051318   -0.560594    2.347598
     11         17           0        0.043838    2.347770    0.560502
 ---------------------------------------------------------------------
 Rotational constants (GHZ):      0.5687562      0.4843361      0.4837707

 **********************************************************************

            Population analysis using the SCF density.

 **********************************************************************

 Orbital symmetries:
       Occupied  (A) (A) (A) (A) (A) (A) (A) (A) (A) (A) (A) (A)
                 (A) (A) (A) (A) (A) (A) (A) (A) (A) (A) (A) (A)
                 (A) (A) (A) (A) (A) (A) (A) (A) (A) (A) (A) (A)
                 (A) (A) (A) (A) (A) (A) (A) (A) (A) (A) (A) (A)
                 (A) (A) (A) (A) (A) (A) (A) (A) (A) (A) (A) (A)
                 (A) (A) (A) (A) (A) (A) (A)
       Virtual   (A) (A) (A) (A) (A) (A) (A) (A) (A) (A) (A) (A)
                 (A) (A) (A) (A) (A) (A) (A) (A) (A) (A) (A) (A)
                 (A) (A) (A) (A) (A) (A) (A) (A) (A) (A) (A) (A)
                 (A) (A) (A) (A) (A) (A) (A) (A) (A) (A) (A) (A)
                 (A) (A) (A) (A) (A) (A) (A) (A) (A) (A) (A) (A)
                 (A) (A) (A) (A) (A) (A) (A) (A) (A) (A) (A) (A)
                 (A) (A) (A) (A) (A) (A) (A) (A) (A) (A) (A) (A)
                 (A) (A) (A) (A) (A) (A) (A) (A) (A) (A) (A) (A)
                 (A) (A) (A) (A) (A) (A) (A) (A) (A) (A) (A) (A)
                 (A) (A) (A)
 The electronic state is 1-A.
 Alpha  occ. eigenvalues -- -101.45259-101.45236-101.45227-101.45177 -19.15223
 Alpha  occ. eigenvalues --  -19.15203 -19.14020 -19.13994 -14.51292 -14.51287
 Alpha  occ. eigenvalues --   -9.40449  -9.40426  -9.40417  -9.40368  -7.17264
 Alpha  occ. eigenvalues --   -7.17242  -7.17234  -7.17186  -7.16434  -7.16416
 Alpha  occ. eigenvalues --   -7.16412  -7.16403  -7.16393  -7.16384  -7.16353
 Alpha  occ. eigenvalues --   -7.16333  -4.01583  -2.22624  -2.22617  -2.22559
 Alpha  occ. eigenvalues --   -1.19033  -1.18929  -1.01545  -1.01520  -0.76599
 Alpha  occ. eigenvalues --   -0.74992  -0.74804  -0.74785  -0.63151  -0.60453
 Alpha  occ. eigenvalues --   -0.52556  -0.50621  -0.50343  -0.50332  -0.48823
 Alpha  occ. eigenvalues --   -0.48818  -0.40361  -0.39899  -0.38443  -0.36506
 Alpha  occ. eigenvalues --   -0.36491  -0.31718  -0.31711  -0.30367  -0.30023
 Alpha  occ. eigenvalues --   -0.29659  -0.28552  -0.27423  -0.27387  -0.26919
 Alpha  occ. eigenvalues --   -0.26913  -0.26492  -0.25686  -0.25393  -0.25366
 Alpha  occ. eigenvalues --   -0.25223  -0.22904
 Alpha virt. eigenvalues --   -0.11451  -0.08358  -0.03695  -0.03677   0.05625
 Alpha virt. eigenvalues --    0.05638   0.06581   0.10457   0.23707   0.25342
 Alpha virt. eigenvalues --    0.25371   0.29802   0.32665   0.38201   0.38264
 Alpha virt. eigenvalues --    0.38784   0.42696   0.43254   0.46077   0.56317
 Alpha virt. eigenvalues --    0.58386   0.61882   0.67964   0.69570   0.70028
 Alpha virt. eigenvalues --    0.70150   0.74045   0.74051   0.78284   0.78334
 Alpha virt. eigenvalues --    0.79346   0.79351   0.80228   0.80407   0.81152
 Alpha virt. eigenvalues --    0.81747   0.81951   0.82218   0.82219   0.82330
 Alpha virt. eigenvalues --    0.82335   0.82506   0.82821   0.83367   0.86283
 Alpha virt. eigenvalues --    0.89246   0.89253   0.90159   0.92340   0.92457
 Alpha virt. eigenvalues --    0.93825   0.94140   0.94807   0.97847   0.98685
 Alpha virt. eigenvalues --    0.99001   1.02422   1.02535   1.03947   1.06689
 Alpha virt. eigenvalues --    1.07178   1.07300   1.08133   1.08267   1.10981
 Alpha virt. eigenvalues --    1.11073   1.11273   1.16379   1.17140   1.22991
 Alpha virt. eigenvalues --    1.23230   1.26556   1.35217   1.39575   1.39671
 Alpha virt. eigenvalues --    1.42724   1.43142   1.43219   1.43284   1.46198
 Alpha virt. eigenvalues --    1.81628   1.88558   1.91349   2.01747   2.01785
 Alpha virt. eigenvalues --    2.03164   2.39172   2.39531   2.45359   2.45496
 Alpha virt. eigenvalues --    2.61837   2.62805   2.64316   2.64458   2.66166
 Alpha virt. eigenvalues --    2.66180   2.72180   2.72267   2.99882   2.99903
 Alpha virt. eigenvalues --    3.06785   3.06805   3.30290   3.30587   3.34759
 Alpha virt. eigenvalues --    3.39358   3.72578   3.73608   3.73685   3.74893
 Alpha virt. eigenvalues --    6.83809
          Condensed to atoms (all electrons):
               1          2          3          4          5          6
     1  Pt  17.044661   0.113400  -0.017546  -0.015427   0.113536  -0.017603
     2  N    0.113400   6.218519   0.285271   0.267722  -0.002297   0.000046
     3  O   -0.017546   0.285271   8.096830  -0.101554   0.000046   0.000000
     4  O   -0.015427   0.267722  -0.101554   8.155646   0.000044   0.000000
     5  N    0.113536  -0.002297   0.000046   0.000044   6.218146   0.285554
     6  O   -0.017603   0.000046   0.000000   0.000000   0.285554   8.095823
     7  O   -0.015367   0.000044   0.000000   0.000000   0.267559  -0.101566
     8  Cl   0.238328  -0.006441  -0.000006  -0.000464  -0.007058  -0.000071
     9  Cl   0.239049  -0.007030  -0.000093  -0.000100  -0.007429   0.000013
    10  Cl   0.238493  -0.007441   0.000041  -0.000007  -0.006190  -0.000106
    11  Cl   0.237894  -0.006404  -0.000100  -0.000380  -0.006490  -0.000005
               7          8          9         10         11
     1  Pt  -0.015367   0.238328   0.239049   0.238493   0.237894
     2  N    0.000044  -0.006441  -0.007030  -0.007441  -0.006404
     3  O    0.000000  -0.000006  -0.000093   0.000041  -0.000100
     4  O    0.000000  -0.000464  -0.000100  -0.000007  -0.000380
     5  N    0.267559  -0.007058  -0.007429  -0.006190  -0.006490
     6  O   -0.101566  -0.000071   0.000013  -0.000106  -0.000005
     7  O    8.156712  -0.000104  -0.000006  -0.000409  -0.000469
     8  Cl  -0.000104  17.045289  -0.010232  -0.000688  -0.010216
     9  Cl  -0.000006  -0.010232  17.045067  -0.010292  -0.000687
    10  Cl  -0.000409  -0.000688  -0.010292  17.045135  -0.010219
    11  Cl  -0.000469  -0.010216  -0.000687  -0.010219  17.045082
 Mulliken charges:
               1
     1  Pt  -0.159418
     2  N    0.144610
     3  O   -0.262889
     4  O   -0.305481
     5  N    0.144579
     6  O   -0.262087
     7  O   -0.306392
     8  Cl  -0.248338
     9  Cl  -0.248259
    10  Cl  -0.248318
    11  Cl  -0.248008
 Sum of Mulliken charges =  -2.00000
 Mulliken charges with hydrogens summed into heavy atoms:
               1
     1  Pt  -0.159418
     2  N    0.144610
     3  O   -0.262889
     4  O   -0.305481
     5  N    0.144579
     6  O   -0.262087
     7  O   -0.306392
     8  Cl  -0.248338
     9  Cl  -0.248259
    10  Cl  -0.248318
    11  Cl  -0.248008
 Electronic spatial extent (au):  <R**2>=           2924.3320
 Charge=             -2.0000 electrons
 Dipole moment (field-independent basis, Debye):
    X=              0.0026    Y=             -0.3486    Z=             -0.0382  Tot=              0.3507
 Quadrupole moment (field-independent basis, Debye-Ang):
   XX=           -145.2354   YY=           -133.8732   ZZ=           -133.7120
   XY=             -0.0655   XZ=              0.8813   YZ=             -0.0136
 Traceless Quadrupole moment (field-independent basis, Debye-Ang):
   XX=             -7.6285   YY=              3.7336   ZZ=              3.8949
   XY=             -0.0655   XZ=              0.8813   YZ=             -0.0136
 Octapole moment (field-independent basis, Debye-Ang**2):
  XXX=              0.0485  YYY=             -0.6220  ZZZ=             -0.0436  XYY=             -3.3066
  XXY=             -2.6541  XXZ=             -0.2965  XZZ=              3.3052  YZZ=             -0.1637
  YYZ=             -0.0363  XYZ=             13.6784
 Hexadecapole moment (field-independent basis, Debye-Ang**3):
 XXXX=          -1695.3331 YYYY=          -1190.2394 ZZZZ=          -1187.4292 XXXY=             -0.5189
 XXXZ=              7.0374 YYYX=             -0.1219 YYYZ=             -9.0892 ZZZX=              1.6053
 ZZZY=              9.0691 XXYY=           -448.6835 XXZZ=           -447.1858 YYZZ=           -388.8787
 XXYZ=             -0.1054 YYXZ=              0.6000 ZZXY=             -0.0414
 N-N= 1.328397182243D+03 E-N=-8.286578524472D+03  KE= 2.281371579496D+03


 BETTER TO HUNT IN FIELDS, FOR HEALTH UNBOUGHT
 THAN FEE THE DOCTOR FOR A NAUSEOUS DRAUGHT.
 THE WISE, FOR CURE, ON EXERCISE DEPEND;
 GOD NEVER MADE HIS WORK FOR MAN TO MEND.
     -- JOHN DRYDEN (1631-1700)
 Error termination request processed by link 9999.
 Error termination via Lnk1e in /scr/programs/g09/l9999.exe at Wed Apr 13 01:10:59 2022.
 Job cpu time:       0 days  7 hours 17 minutes 15.0 seconds.
 File lengths (MBytes):  RWF=     91 Int=      0 D2E=      0 Chk=      5 Scr=      1
