 Entering Gaussian System, Link 0=g09
 Input=estrutura39_D2O.com
 Output=estrutura39_D2O.log
 Initial command:
 /home/scr/programs/g09/l1.exe "/home/scr/diego/Gau-6127.inp" -scrdir="/home/scr/diego/"
 Entering Link 1 = /home/scr/programs/g09/l1.exe PID=      6129.
  
 Copyright (c) 1988,1990,1992,1993,1995,1998,2003,2009,2013,
            Gaussian, Inc.  All Rights Reserved.
  
 This is part of the Gaussian(R) 09 program.  It is based on
 the Gaussian(R) 03 system (copyright 2003, Gaussian, Inc.),
 the Gaussian(R) 98 system (copyright 1998, Gaussian, Inc.),
 the Gaussian(R) 94 system (copyright 1995, Gaussian, Inc.),
 the Gaussian 92(TM) system (copyright 1992, Gaussian, Inc.),
 the Gaussian 90(TM) system (copyright 1990, Gaussian, Inc.),
 the Gaussian 88(TM) system (copyright 1988, Gaussian, Inc.),
 the Gaussian 86(TM) system (copyright 1986, Carnegie Mellon
 University), and the Gaussian 82(TM) system (copyright 1983,
 Carnegie Mellon University). Gaussian is a federally registered
 trademark of Gaussian, Inc.
  
 This software contains proprietary and confidential information,
 including trade secrets, belonging to Gaussian, Inc.
  
 This software is provided under written license and may be
 used, copied, transmitted, or stored only in accord with that
 written license.
  
 The following legend is applicable only to US Government
 contracts under FAR:
  
                    RESTRICTED RIGHTS LEGEND
  
 Use, reproduction and disclosure by the US Government is
 subject to restrictions as set forth in subparagraphs (a)
 and (c) of the Commercial Computer Software - Restricted
 Rights clause in FAR 52.227-19.
  
 Gaussian, Inc.
 340 Quinnipiac St., Bldg. 40, Wallingford CT 06492
  
  
 ---------------------------------------------------------------
 Warning -- This program may not be used in any manner that
 competes with the business of Gaussian, Inc. or will provide
 assistance to any competitor of Gaussian, Inc.  The licensee
 of this program is prohibited from giving any competitor of
 Gaussian, Inc. access to this program.  By using this program,
 the user acknowledges that Gaussian, Inc. is engaged in the
 business of creating and licensing software in the field of
 computational chemistry and represents and warrants to the
 licensee that it is not a competitor of Gaussian, Inc. and that
 it will not use this program in any manner prohibited above.
 ---------------------------------------------------------------
  

 Cite this work as:
 Gaussian 09, Revision D.01,
 M. J. Frisch, G. W. Trucks, H. B. Schlegel, G. E. Scuseria, 
 M. A. Robb, J. R. Cheeseman, G. Scalmani, V. Barone, B. Mennucci, 
 G. A. Petersson, H. Nakatsuji, M. Caricato, X. Li, H. P. Hratchian, 
 A. F. Izmaylov, J. Bloino, G. Zheng, J. L. Sonnenberg, M. Hada, 
 M. Ehara, K. Toyota, R. Fukuda, J. Hasegawa, M. Ishida, T. Nakajima, 
 Y. Honda, O. Kitao, H. Nakai, T. Vreven, J. A. Montgomery, Jr., 
 J. E. Peralta, F. Ogliaro, M. Bearpark, J. J. Heyd, E. Brothers, 
 K. N. Kudin, V. N. Staroverov, T. Keith, R. Kobayashi, J. Normand, 
 K. Raghavachari, A. Rendell, J. C. Burant, S. S. Iyengar, J. Tomasi, 
 M. Cossi, N. Rega, J. M. Millam, M. Klene, J. E. Knox, J. B. Cross, 
 V. Bakken, C. Adamo, J. Jaramillo, R. Gomperts, R. E. Stratmann, 
 O. Yazyev, A. J. Austin, R. Cammi, C. Pomelli, J. W. Ochterski, 
 R. L. Martin, K. Morokuma, V. G. Zakrzewski, G. A. Voth, 
 P. Salvador, J. J. Dannenberg, S. Dapprich, A. D. Daniels, 
 O. Farkas, J. B. Foresman, J. V. Ortiz, J. Cioslowski, 
 and D. J. Fox, Gaussian, Inc., Wallingford CT, 2013.
 
 ******************************************
 Gaussian 09:  EM64L-G09RevD.01 24-Apr-2013
                18-Aug-2021 
 ******************************************
 %mem=15gb
 %nproc=8
 Will use up to    8 processors via shared memory.
 ------------------------------------------------------------
 #b3lyp/gen pseudo=read opt freq=noraman scrf=(solvent=water)
 ------------------------------------------------------------
 1/14=-1,18=20,19=15,26=3,38=1/1,3;
 2/9=110,12=2,17=6,18=5,40=1/2;
 3/5=7,11=2,16=1,17=8,25=1,30=1,70=2201,71=1,72=1,74=-5/1,2,3;
 4//1;
 5/5=2,38=5,53=1/2;
 6/7=2,8=2,9=2,10=2,28=1/1;
 7//1,2,3,16;
 1/14=-1,18=20,19=15,26=3/3(2);
 2/9=110/2;
 99//99;
 2/9=110/2;
 3/5=7,6=1,11=2,16=1,17=8,25=1,30=1,70=2205,71=1,72=1,74=-5,82=7/1,2,3;
 4/5=5,16=3,69=1/1;
 5/5=2,38=5,53=1/2;
 7//1,2,3,16;
 1/14=-1,18=20,19=15,26=3/3(-5);
 2/9=110/2;
 6/7=2,8=2,9=2,10=2,19=2,28=1/1;
 99/9=1/99;
 ------------
 Estrutura 39
 ------------
 Symbolic Z-matrix:
 Charge = -2 Multiplicity = 1
 Pt                   -0.31955   0.33835   0. 
 Br                   -0.31955   2.76835   0. 
 N                    -2.30955   0.33835   0. 
 O                    -2.76288   1.58503   0.2998 
 O                    -2.76288  -0.54463   0.92976 
 Br                   -0.31955   0.33835   2.43 
 N                     1.67045   0.33835   0. 
 O                     2.12378   0.84706  -1.17699 
 O                     2.12378   1.10329   1.02905 
 Cl                   -0.31955  -1.94165   0. 
 Cl                   -0.31955   0.33835  -2.28 
 

 GradGradGradGradGradGradGradGradGradGradGradGradGradGradGradGradGradGrad
 Berny optimization.
 Initialization pass.
                           ----------------------------
                           !    Initial Parameters    !
                           ! (Angstroms and Degrees)  !
 --------------------------                            --------------------------
 ! Name  Definition              Value          Derivative Info.                !
 --------------------------------------------------------------------------------
 ! R1    R(1,2)                  2.43           estimate D2E/DX2                !
 ! R2    R(1,3)                  1.99           estimate D2E/DX2                !
 ! R3    R(1,6)                  2.43           estimate D2E/DX2                !
 ! R4    R(1,7)                  1.99           estimate D2E/DX2                !
 ! R5    R(1,10)                 2.28           estimate D2E/DX2                !
 ! R6    R(1,11)                 2.28           estimate D2E/DX2                !
 ! R7    R(3,4)                  1.36           estimate D2E/DX2                !
 ! R8    R(3,5)                  1.36           estimate D2E/DX2                !
 ! R9    R(7,8)                  1.36           estimate D2E/DX2                !
 ! R10   R(7,9)                  1.36           estimate D2E/DX2                !
 ! A1    A(2,1,3)               90.0            estimate D2E/DX2                !
 ! A2    A(2,1,6)               90.0            estimate D2E/DX2                !
 ! A3    A(2,1,7)               90.0            estimate D2E/DX2                !
 ! A4    A(2,1,11)              90.0            estimate D2E/DX2                !
 ! A5    A(3,1,6)               90.0            estimate D2E/DX2                !
 ! A6    A(3,1,10)              90.0            estimate D2E/DX2                !
 ! A7    A(3,1,11)              90.0            estimate D2E/DX2                !
 ! A8    A(6,1,7)               90.0            estimate D2E/DX2                !
 ! A9    A(6,1,10)              90.0            estimate D2E/DX2                !
 ! A10   A(7,1,10)              90.0            estimate D2E/DX2                !
 ! A11   A(7,1,11)              90.0            estimate D2E/DX2                !
 ! A12   A(10,1,11)             90.0            estimate D2E/DX2                !
 ! A13   A(1,3,4)              109.4712         estimate D2E/DX2                !
 ! A14   A(1,3,5)              109.4712         estimate D2E/DX2                !
 ! A15   A(4,3,5)              109.4713         estimate D2E/DX2                !
 ! A16   A(1,7,8)              109.4712         estimate D2E/DX2                !
 ! A17   A(1,7,9)              109.4712         estimate D2E/DX2                !
 ! A18   A(8,7,9)              109.4713         estimate D2E/DX2                !
 ! A19   L(2,1,10,3,-1)        180.0            estimate D2E/DX2                !
 ! A20   L(3,1,7,2,-1)         180.0            estimate D2E/DX2                !
 ! A21   L(6,1,11,2,-1)        180.0            estimate D2E/DX2                !
 ! A22   L(2,1,10,3,-2)        180.0            estimate D2E/DX2                !
 ! A23   L(3,1,7,2,-2)         180.0            estimate D2E/DX2                !
 ! A24   L(6,1,11,2,-2)        180.0            estimate D2E/DX2                !
 ! D1    D(2,1,3,4)            -13.5217         estimate D2E/DX2                !
 ! D2    D(2,1,3,5)           -133.5217         estimate D2E/DX2                !
 ! D3    D(6,1,3,4)             76.4783         estimate D2E/DX2                !
 ! D4    D(6,1,3,5)            -43.5217         estimate D2E/DX2                !
 ! D5    D(10,1,3,4)           166.4783         estimate D2E/DX2                !
 ! D6    D(10,1,3,5)            46.4783         estimate D2E/DX2                !
 ! D7    D(11,1,3,4)          -103.5217         estimate D2E/DX2                !
 ! D8    D(11,1,3,5)           136.4783         estimate D2E/DX2                !
 ! D9    D(4,3,7,8)            -80.1468         estimate D2E/DX2                !
 ! D10   D(4,3,7,9)             39.8532         estimate D2E/DX2                !
 ! D11   D(5,3,7,8)            159.8532         estimate D2E/DX2                !
 ! D12   D(5,3,7,9)            -80.1468         estimate D2E/DX2                !
 ! D13   D(2,1,7,8)            -66.6251         estimate D2E/DX2                !
 ! D14   D(2,1,7,9)             53.3749         estimate D2E/DX2                !
 ! D15   D(6,1,7,8)           -156.6251         estimate D2E/DX2                !
 ! D16   D(6,1,7,9)            -36.6251         estimate D2E/DX2                !
 ! D17   D(10,1,7,8)           113.3749         estimate D2E/DX2                !
 ! D18   D(10,1,7,9)          -126.6251         estimate D2E/DX2                !
 ! D19   D(11,1,7,8)            23.3749         estimate D2E/DX2                !
 ! D20   D(11,1,7,9)           143.3749         estimate D2E/DX2                !
 --------------------------------------------------------------------------------
 Trust Radius=3.00D-01 FncErr=1.00D-07 GrdErr=1.00D-06
 Number of steps in this run=     64 maximum allowed number of steps=    100.
 GradGradGradGradGradGradGradGradGradGradGradGradGradGradGradGradGradGrad

                          Input orientation:                          
 ---------------------------------------------------------------------
 Center     Atomic      Atomic             Coordinates (Angstroms)
 Number     Number       Type             X           Y           Z
 ---------------------------------------------------------------------
      1         78           0       -0.319549    0.338346    0.000000
      2         35           0       -0.319549    2.768346    0.000000
      3          7           0       -2.309549    0.338346    0.000000
      4          8           0       -2.762882    1.585025    0.299800
      5          8           0       -2.762882   -0.544629    0.929755
      6         35           0       -0.319549    0.338346    2.430000
      7          7           0        1.670451    0.338346    0.000000
      8          8           0        2.123784    0.847061   -1.176987
      9          8           0        2.123784    1.103288    1.029054
     10         17           0       -0.319549   -1.941654    0.000000
     11         17           0       -0.319549    0.338346   -2.280000
 ---------------------------------------------------------------------
                    Distance matrix (angstroms):
                    1          2          3          4          5
     1  Pt   0.000000
     2  Br   2.430000   0.000000
     3  N    1.990000   3.140860   0.000000
     4  O    2.759341   2.731301   1.360000   0.000000
     5  O    2.759341   4.220204   1.360000   2.220871   0.000000
     6  Br   2.430000   3.436539   3.140860   3.473015   3.000042
     7  N    1.990000   3.140860   3.980000   4.615033   4.615033
     8  O    2.759341   3.323629   4.615033   5.158003   5.500424
     9  O    2.759341   3.130694   4.615033   4.964210   5.158003
    10  Cl   2.280000   4.710000   3.026301   4.300840   2.964119
    11  Cl   2.280000   3.332161   3.026301   3.765562   4.129413
                    6          7          8          9         10
     6  Br   0.000000
     7  N    3.140860   0.000000
     8  O    4.386231   1.360000   0.000000
     9  O    2.918503   1.360000   2.220871   0.000000
    10  Cl   3.332161   3.026301   3.890001   4.037388   0.000000
    11  Cl   4.710000   3.026301   2.728609   4.183880   3.224407
                   11
    11  Cl   0.000000
 Stoichiometry    Br2Cl2N2O4Pt(2-)
 Framework group  C1[X(Br2Cl2N2O4Pt)]
 Deg. of freedom    27
 Full point group                 C1      NOp   1
 Largest Abelian subgroup         C1      NOp   1
 Largest concise Abelian subgroup C1      NOp   1
                         Standard orientation:                         
 ---------------------------------------------------------------------
 Center     Atomic      Atomic             Coordinates (Angstroms)
 Number     Number       Type             X           Y           Z
 ---------------------------------------------------------------------
      1         78           0        0.019556    0.353071    0.029619
      2         35           0        1.470134   -1.553967    0.434500
      3          7           0       -0.658202    0.233968    1.896852
      4          8           0       -0.286175   -0.956482    2.439093
      5          8           0       -2.015063    0.326250    1.893371
      6         35           0       -1.745601   -1.145913   -0.706702
      7          7           0        0.697314    0.472174   -1.837613
      8          8           0        2.010352    0.826115   -1.821576
      9          8           0        0.560833   -0.735800   -2.447343
     10         17           0       -1.341480    2.142391   -0.350269
     11         17           0        1.675752    1.759525    0.720489
 ---------------------------------------------------------------------
 Rotational constants (GHZ):      0.4587951      0.4221976      0.3745117
 General basis read from cards:  (5D, 7F)
 ======================================================================================================
                                       Pseudopotential Parameters
 ======================================================================================================
  Center     Atomic      Valence      Angular      Power
  Number     Number     Electrons     Momentum     of R      Exponent        Coefficient   SO-Coeffient
 ======================================================================================================
    1         78           18
                                      G and up 
                                                     1      728.9394056       -0.16192680    0.00000000
                                                     2      320.6567800    -1320.28738520    0.00000000
                                                     2       52.8680174     -298.31781350    0.00000000
                                                     2       12.0280128      -87.58370650    0.00000000
                                                     2        3.5238913       -8.14932740    0.00000000
                                      S - G
                                                     0      409.4437358        2.73342180    0.00000000
                                                     1      274.5419231       59.70243290    0.00000000
                                                     2      127.5658570      891.45895500    0.00000000
                                                     2       32.9036631      368.44676560    0.00000000
                                                     2        5.0593880      238.02630900    0.00000000
                                                     2        4.1506556     -107.05564540    0.00000000
                                      P - G
                                                     0      466.1728892        1.88785680    0.00000000
                                                     1      120.7888259       76.01386290    0.00000000
                                                     2       36.4118791      343.55111160    0.00000000
                                                     2        5.6985408      119.49117860    0.00000000
                                      D - G
                                                     0      249.5650763        2.93436780    0.00000000
                                                     1      126.6678585       59.33065710    0.00000000
                                                     2       63.1430586      452.44451940    0.00000000
                                                     2       17.9059470      210.47694790    0.00000000
                                                     2        4.2239373       58.62541120    0.00000000
                                      F - G
                                                     0      121.8158799        3.95342530    0.00000000
                                                     1       60.8757030       53.85551820    0.00000000
                                                     2       31.4767147      247.43051330    0.00000000
                                                     2        9.8811751      127.81879760    0.00000000
                                                     2        2.7319874       15.37720460    0.00000000
    2         35
                                   No pseudopotential on this center.
    3          7
                                   No pseudopotential on this center.
    4          8
                                   No pseudopotential on this center.
    5          8
                                   No pseudopotential on this center.
    6         35
                                   No pseudopotential on this center.
    7          7
                                   No pseudopotential on this center.
    8          8
                                   No pseudopotential on this center.
    9          8
                                   No pseudopotential on this center.
   10         17
                                   No pseudopotential on this center.
   11         17
                                   No pseudopotential on this center.
 ======================================================================================================
 There are   222 symmetry adapted cartesian basis functions of A   symmetry.
 There are   206 symmetry adapted basis functions of A   symmetry.
   206 basis functions,   427 primitive gaussians,   222 cartesian basis functions
    85 alpha electrons       85 beta electrons
       nuclear repulsion energy      2092.2878983041 Hartrees.
 NAtoms=   11 NActive=   11 NUniq=   11 SFac= 1.00D+00 NAtFMM=   60 NAOKFM=F Big=F
 Integral buffers will be    131072 words long.
 Raffenetti 2 integral format.
 Two-electron integral symmetry is turned on.
 ------------------------------------------------------------------------------
 Polarizable Continuum Model (PCM)
 =================================
 Model                : PCM (using non-symmetric T matrix).
 Atomic radii         : UFF (Universal Force Field).
 Polarization charges : Total charges.
 Charge compensation  : None.
 Solution method      : On-the-fly selection.
 Cavity type          : Scaled VdW (van der Waals Surface) (Alpha=1.100).
 Cavity algorithm     : GePol (No added spheres)
                        Default sphere list used, NSphG=   11.
                        Lebedev-Laikov grids with approx.  5.0 points / Ang**2.
                        Smoothing algorithm: Karplus/York (Gamma=1.0000).
                        Polarization charges: spherical gaussians, with
                                              point-specific exponents (IZeta= 3).
                        Self-potential: point-specific (ISelfS= 7).
                        Self-field    : sphere-specific E.n sum rule (ISelfD= 2).
 1st derivatives      : Analytical E(r).r(x)/FMM algorithm (CHGder, D1EAlg=3).
                        Cavity 1st derivative terms included.
 Solvent              : Water, Eps=  78.355300 Eps(inf)=   1.777849
 ------------------------------------------------------------------------------
 Spheres list:
 ISph  on   Nord     Re0    Alpha      Xe            Ye            Ze
    1  Pt      1    1.3770  1.100      0.019556      0.353071      0.029619
    2  Br      2    2.0945  1.100      1.470134     -1.553967      0.434500
    3   N      3    1.8300  1.100     -0.658202      0.233968      1.896852
    4   O      4    1.7500  1.100     -0.286175     -0.956482      2.439093
    5   O      5    1.7500  1.100     -2.015063      0.326250      1.893371
    6  Br      6    2.0945  1.100     -1.745601     -1.145913     -0.706702
    7   N      7    1.8300  1.100      0.697314      0.472174     -1.837613
    8   O      8    1.7500  1.100      2.010352      0.826115     -1.821576
    9   O      9    1.7500  1.100      0.560833     -0.735800     -2.447343
   10  Cl     10    1.9735  1.100     -1.341480      2.142391     -0.350269
   11  Cl     11    1.9735  1.100      1.675752      1.759525      0.720489
 ------------------------------------------------------------------------------
 One-electron integrals computed using PRISM.
   1 Symmetry operations used in ECPInt.
 ECPInt:  NShTT=    3570 NPrTT=   17235 LenC2=    3330 LenP2D=   11227.
 LDataN:  DoStor=T MaxTD1= 6 Len=  172
 NBasis=   206 RedAO= T EigKep=  4.45D-03  NBF=   206
 NBsUse=   206 1.00D-06 EigRej= -1.00D+00 NBFU=   206
 Defaulting to unpruned grid for atomic number  78.
 ExpMin= 2.90D-02 ExpMax= 1.13D+05 ExpMxC= 1.70D+04 IAcc=3 IRadAn=         5 AccDes= 0.00D+00
 Harris functional with IExCor=  402 and IRadAn=       5 diagonalized for initial guess.
 HarFok:  IExCor=  402 AccDes= 0.00D+00 IRadAn=         5 IDoV= 1 UseB2=F ITyADJ=14
 ICtDFT=  3500011 ScaDFX=  1.000000  1.000000  1.000000  1.000000
 Defaulting to unpruned grid for atomic number  78.
 Defaulting to unpruned grid for atomic number  78.
 Defaulting to unpruned grid for atomic number  78.
 Defaulting to unpruned grid for atomic number  78.
 Defaulting to unpruned grid for atomic number  78.
 Defaulting to unpruned grid for atomic number  78.
 Defaulting to unpruned grid for atomic number  78.
 Defaulting to unpruned grid for atomic number  78.
 FoFCou: FMM=F IPFlag=           0 FMFlag=      100000 FMFlg1=           0
         NFxFlg=           0 DoJE=T BraDBF=F KetDBF=T FulRan=T
         wScrn=  0.000000 ICntrl=     500 IOpCl=  0 I1Cent=   200000004 NGrid=           0
         NMat0=    1 NMatS0=      1 NMatT0=    0 NMatD0=    1 NMtDS0=    0 NMtDT0=    0
 Petite list used in FoFCou.
 Keep R1 ints in memory in canonical form, NReq=233279305.
 Requested convergence on RMS density matrix=1.00D-08 within 128 cycles.
 Requested convergence on MAX density matrix=1.00D-06.
 Requested convergence on             energy=1.00D-06.
 No special actions if energy rises.
 Defaulting to unpruned grid for atomic number  78.
 Defaulting to unpruned grid for atomic number  78.
 Defaulting to unpruned grid for atomic number  78.
 Defaulting to unpruned grid for atomic number  78.
 Defaulting to unpruned grid for atomic number  78.
 Defaulting to unpruned grid for atomic number  78.
 Defaulting to unpruned grid for atomic number  78.
 Defaulting to unpruned grid for atomic number  78.
 Inv3:  Mode=1 IEnd=     7096332.
 Iteration    1 A*A^-1 deviation from unit magnitude is 7.55D-15 for   1114.
 Iteration    1 A*A^-1 deviation from orthogonality  is 2.82D-15 for   1076    329.
 Iteration    1 A^-1*A deviation from unit magnitude is 6.88D-15 for    536.
 Iteration    1 A^-1*A deviation from orthogonality  is 1.68D-15 for    952    623.
 EnCoef did     5 forward-backward iterations
 EnCoef did   100 forward-backward iterations
 EnCoef did     4 forward-backward iterations
 EnCoef did     2 forward-backward iterations
 EnCoef did     2 forward-backward iterations
 EnCoef did     2 forward-backward iterations
 Error on total polarization charges =  0.01395
 SCF Done:  E(RB3LYP) =  -6597.20482422     A.U. after   23 cycles
            NFock= 23  Conv=0.50D-08     -V/T= 2.0142

 **********************************************************************

            Population analysis using the SCF density.

 **********************************************************************

 Orbital symmetries:
       Occupied  (A) (A) (A) (A) (A) (A) (A) (A) (A) (A) (A) (A)
                 (A) (A) (A) (A) (A) (A) (A) (A) (A) (A) (A) (A)
                 (A) (A) (A) (A) (A) (A) (A) (A) (A) (A) (A) (A)
                 (A) (A) (A) (A) (A) (A) (A) (A) (A) (A) (A) (A)
                 (A) (A) (A) (A) (A) (A) (A) (A) (A) (A) (A) (A)
                 (A) (A) (A) (A) (A) (A) (A) (A) (A) (A) (A) (A)
                 (A) (A) (A) (A) (A) (A) (A) (A) (A) (A) (A) (A)
                 (A)
       Virtual   (A) (A) (A) (A) (A) (A) (A) (A) (A) (A) (A) (A)
                 (A) (A) (A) (A) (A) (A) (A) (A) (A) (A) (A) (A)
                 (A) (A) (A) (A) (A) (A) (A) (A) (A) (A) (A) (A)
                 (A) (A) (A) (A) (A) (A) (A) (A) (A) (A) (A) (A)
                 (A) (A) (A) (A) (A) (A) (A) (A) (A) (A) (A) (A)
                 (A) (A) (A) (A) (A) (A) (A) (A) (A) (A) (A) (A)
                 (A) (A) (A) (A) (A) (A) (A) (A) (A) (A) (A) (A)
                 (A) (A) (A) (A) (A) (A) (A) (A) (A) (A) (A) (A)
                 (A) (A) (A) (A) (A) (A) (A) (A) (A) (A) (A) (A)
                 (A) (A) (A) (A) (A) (A) (A) (A) (A) (A) (A) (A)
                 (A)
 The electronic state is 1-A.
 Alpha  occ. eigenvalues -- -482.74614-482.74335-101.45075-101.44790 -62.42772
 Alpha  occ. eigenvalues --  -62.42493 -56.25957 -56.25684 -56.25680 -56.25663
 Alpha  occ. eigenvalues --  -56.25391 -56.25387 -19.14459 -19.14346 -19.14078
 Alpha  occ. eigenvalues --  -19.14040 -14.49251 -14.49194  -9.40450  -9.40176
 Alpha  occ. eigenvalues --   -8.64543  -8.64268  -7.17265  -7.17002  -7.16408
 Alpha  occ. eigenvalues --   -7.16388  -7.16131  -7.16099  -6.47724  -6.47470
 Alpha  occ. eigenvalues --   -6.46708  -6.46650  -6.46399  -6.46386  -4.02917
 Alpha  occ. eigenvalues --   -2.59181  -2.58923  -2.58907  -2.58861  -2.58622
 Alpha  occ. eigenvalues --   -2.58612  -2.58062  -2.58061  -2.57771  -2.57768
 Alpha  occ. eigenvalues --   -2.24824  -2.23951  -2.23905  -1.09125  -1.08689
 Alpha  occ. eigenvalues --   -0.92944  -0.92897  -0.77350  -0.75758  -0.72665
 Alpha  occ. eigenvalues --   -0.71935  -0.67008  -0.63126  -0.50821  -0.47063
 Alpha  occ. eigenvalues --   -0.47001  -0.46404  -0.45293  -0.45081  -0.42314
 Alpha  occ. eigenvalues --   -0.41535  -0.40840  -0.37212  -0.36677  -0.31939
 Alpha  occ. eigenvalues --   -0.31682  -0.29443  -0.27518  -0.27397  -0.27033
 Alpha  occ. eigenvalues --   -0.26749  -0.26454  -0.26170  -0.26007  -0.25505
 Alpha  occ. eigenvalues --   -0.24802  -0.24497  -0.23363  -0.22399  -0.21980
 Alpha virt. eigenvalues --   -0.14216  -0.09417  -0.09095  -0.03130   0.05495
 Alpha virt. eigenvalues --    0.05539   0.06716   0.15717   0.18860   0.18970
 Alpha virt. eigenvalues --    0.20276   0.20815   0.26323   0.28343   0.29014
 Alpha virt. eigenvalues --    0.35613   0.37606   0.40238   0.40619   0.45740
 Alpha virt. eigenvalues --    0.47208   0.49478   0.55747   0.55924   0.56223
 Alpha virt. eigenvalues --    0.56472   0.58619   0.60882   0.61757   0.63254
 Alpha virt. eigenvalues --    0.64277   0.67074   0.67187   0.68330   0.70441
 Alpha virt. eigenvalues --    0.71192   0.72756   0.73144   0.76347   0.78401
 Alpha virt. eigenvalues --    0.79738   0.79974   0.81196   0.81835   0.81980
 Alpha virt. eigenvalues --    0.83496   0.87936   0.88380   0.91588   0.92759
 Alpha virt. eigenvalues --    0.93050   0.93916   0.94159   0.96801   0.97187
 Alpha virt. eigenvalues --    0.99078   1.00598   1.03042   1.03943   1.05055
 Alpha virt. eigenvalues --    1.06003   1.07572   1.09483   1.11440   1.12179
 Alpha virt. eigenvalues --    1.12762   1.16979   1.19084   1.19890   1.21955
 Alpha virt. eigenvalues --    1.23871   1.26588   1.30233   1.34662   1.37246
 Alpha virt. eigenvalues --    1.38701   1.42681   1.46395   1.49089   1.54799
 Alpha virt. eigenvalues --    1.93951   1.94079   1.97084   2.00588   2.02447
 Alpha virt. eigenvalues --    2.08375   2.30542   2.31472   2.33600   2.34002
 Alpha virt. eigenvalues --    2.65263   2.65940   2.66702   2.66936   2.67122
 Alpha virt. eigenvalues --    2.67605   2.68660   2.68983   2.75700   2.76369
 Alpha virt. eigenvalues --    2.97719   2.98658   3.01378   3.01724   3.22396
 Alpha virt. eigenvalues --    3.22779   3.44497   3.45782   3.47010   3.48463
 Alpha virt. eigenvalues --    3.49971   3.51523   3.54753   3.57722   3.61095
 Alpha virt. eigenvalues --    3.68009   3.69836   3.70518   3.74555   3.79979
 Alpha virt. eigenvalues --    8.70692
          Condensed to atoms (all electrons):
               1          2          3          4          5          6
     1  Pt  17.393031   0.215237   0.033816  -0.010806  -0.013256   0.207833
     2  Br   0.215237  35.025480  -0.019543  -0.032606   0.000526  -0.028267
     3  N    0.033816  -0.019543   6.653285   0.177200   0.188348  -0.019245
     4  O   -0.010806  -0.032606   0.177200   8.235862  -0.095350   0.001335
     5  O   -0.013256   0.000526   0.188348  -0.095350   8.196245  -0.001151
     6  Br   0.207833  -0.028267  -0.019245   0.001335  -0.001151  35.010249
     7  N    0.037689  -0.021514  -0.004848   0.000092   0.000091  -0.020977
     8  O   -0.005452   0.001095   0.000086   0.000001   0.000000   0.000485
     9  O   -0.022638   0.000470   0.000094   0.000000   0.000000  -0.011896
    10  Cl   0.225182  -0.003109  -0.008282   0.000159  -0.008110  -0.026149
    11  Cl   0.229197  -0.025112  -0.011691  -0.000316   0.000152  -0.003128
               7          8          9         10         11
     1  Pt   0.037689  -0.005452  -0.022638   0.225182   0.229197
     2  Br  -0.021514   0.001095   0.000470  -0.003109  -0.025112
     3  N   -0.004848   0.000086   0.000094  -0.008282  -0.011691
     4  O    0.000092   0.000001   0.000000   0.000159  -0.000316
     5  O    0.000091   0.000000   0.000000  -0.008110   0.000152
     6  Br  -0.020977   0.000485  -0.011896  -0.026149  -0.003128
     7  N    6.644496   0.182668   0.186355  -0.009180  -0.007216
     8  O    0.182668   8.214788  -0.096195  -0.000165  -0.024309
     9  O    0.186355  -0.096195   8.211654   0.000049   0.000148
    10  Cl  -0.009180  -0.000165   0.000049  17.072121  -0.023667
    11  Cl  -0.007216  -0.024309   0.000148  -0.023667  17.074527
 Mulliken charges:
               1
     1  Pt  -0.289834
     2  Br  -0.112658
     3  N    0.010781
     4  O   -0.275570
     5  O   -0.267497
     6  Br  -0.109090
     7  N    0.012343
     8  O   -0.272999
     9  O   -0.268041
    10  Cl  -0.218850
    11  Cl  -0.208585
 Sum of Mulliken charges =  -2.00000
 Mulliken charges with hydrogens summed into heavy atoms:
               1
     1  Pt  -0.289834
     2  Br  -0.112658
     3  N    0.010781
     4  O   -0.275570
     5  O   -0.267497
     6  Br  -0.109090
     7  N    0.012343
     8  O   -0.272999
     9  O   -0.268041
    10  Cl  -0.218850
    11  Cl  -0.208585
 Electronic spatial extent (au):  <R**2>=           3377.1040
 Charge=             -2.0000 electrons
 Dipole moment (field-independent basis, Debye):
    X=             -0.5128    Y=             -0.8132    Z=             -0.2277  Tot=              0.9880
 Quadrupole moment (field-independent basis, Debye-Ang):
   XX=           -151.9061   YY=           -144.8668   ZZ=           -148.8357
   XY=             -0.7609   XZ=              7.7146   YZ=              0.6690
 Traceless Quadrupole moment (field-independent basis, Debye-Ang):
   XX=             -3.3699   YY=              3.6694   ZZ=             -0.2995
   XY=             -0.7609   XZ=              7.7146   YZ=              0.6690
 Octapole moment (field-independent basis, Debye-Ang**2):
  XXX=             -4.9500  YYY=            -48.1659  ZZZ=             -4.2619  XYY=             -3.0864
  XXY=            -22.2470  XXZ=             -1.3882  XZZ=             -4.3636  YZZ=              4.1849
  YYZ=             -2.3148  XYZ=             -0.1095
 Hexadecapole moment (field-independent basis, Debye-Ang**3):
 XXXX=          -1507.6472 YYYY=          -1336.7094 ZZZZ=          -1260.0608 XXXY=            -10.7037
 XXXZ=             74.2448 YYYX=             -3.7084 YYYZ=              2.8243 ZZZX=             80.8331
 ZZZY=              9.2187 XXYY=           -476.9782 XXZZ=           -484.2962 YYZZ=           -425.9373
 XXYZ=              4.0636 YYXZ=             11.1844 ZZXY=             -6.4225
 N-N= 2.092287898304D+03 E-N=-1.994288155347D+04  KE= 6.504918416395D+03
   1 Symmetry operations used in ECPInt.
 ECPInt:  NShTT=    3570 NPrTT=   17235 LenC2=    3330 LenP2D=   11227.
 LDataN:  DoStor=T MaxTD1= 7 Len=  274
 D1PCM: PCM CHGder 1st derivatives, ID1Alg=3 FixD1E=F DoIter=F DoCFld=F I1PDM=0.
 Calling FoFJK, ICntrl=      2127 FMM=F ISym2X=0 I1Cent= 0 IOpClX= 0 NMat=1 NMatS=1 NMatT=0.
 Defaulting to unpruned grid for atomic number  78.
 Defaulting to unpruned grid for atomic number  78.
 Defaulting to unpruned grid for atomic number  78.
 Defaulting to unpruned grid for atomic number  78.
 Defaulting to unpruned grid for atomic number  78.
 Defaulting to unpruned grid for atomic number  78.
 Defaulting to unpruned grid for atomic number  78.
 Defaulting to unpruned grid for atomic number  78.
 ***** Axes restored to original set *****
 -------------------------------------------------------------------
 Center     Atomic                   Forces (Hartrees/Bohr)
 Number     Number              X              Y              Z
 -------------------------------------------------------------------
      1       78          -0.001939129   -0.023809828   -0.011065610
      2       35           0.016349554    0.039381592   -0.002363460
      3        7          -0.099353774    0.057072420    0.167258599
      4        8           0.010223401   -0.090167288   -0.053536754
      5        8           0.022517234    0.039411398   -0.089965440
      6       35          -0.007538139   -0.002450025    0.036281458
      7        7           0.100135881    0.177261613   -0.014942575
      8        8          -0.014513825   -0.067988790    0.077266607
      9        8          -0.018031258   -0.080506671   -0.058793179
     10       17           0.004648514   -0.045742712   -0.002591784
     11       17          -0.012498459   -0.002461708   -0.047547863
 -------------------------------------------------------------------
 Cartesian Forces:  Max     0.177261613 RMS     0.063612739

 GradGradGradGradGradGradGradGradGradGradGradGradGradGradGradGradGradGrad
 Berny optimization.
 FormGI is forming the generalized inverse of G from B-inverse, IUseBI=4.
 Internal  Forces:  Max     0.097883391 RMS     0.035542891
 Search for a local minimum.
 Step number   1 out of a maximum of   64
 All quantities printed in internal units (Hartrees-Bohrs-Radians)
 Mixed Optimization -- RFO/linear search
 Second derivative matrix not updated -- first step.
 ITU=  0
     Eigenvalues ---    0.00230   0.00230   0.03408   0.03414   0.06422
     Eigenvalues ---    0.06422   0.12070   0.12330   0.12615   0.12615
     Eigenvalues ---    0.12615   0.19509   0.19509   0.20378   0.20378
     Eigenvalues ---    0.22001   0.22001   0.25000   0.25000   0.25000
     Eigenvalues ---    0.25000   0.25000   0.25000   0.52948   0.52948
     Eigenvalues ---    0.52948   0.52948
 RFO step:  Lambda=-1.54856267D-01 EMin= 2.30000000D-03
 Linear search not attempted -- first point.
 Maximum step size (   0.300) exceeded in Quadratic search.
    -- Step size scaled by   0.549
 Iteration  1 RMS(Cart)=  0.07766302 RMS(Int)=  0.00304184
 Iteration  2 RMS(Cart)=  0.00327523 RMS(Int)=  0.00132937
 Iteration  3 RMS(Cart)=  0.00001210 RMS(Int)=  0.00132934
 Iteration  4 RMS(Cart)=  0.00000005 RMS(Int)=  0.00132934
 Variable       Old X    -DE/DX   Delta X   Delta X   Delta X     New X
                                 (Linear)    (Quad)   (Total)
    R1        4.59203   0.03938   0.00000   0.06181   0.06181   4.65385
    R2        3.76056   0.06660   0.00000   0.10201   0.10201   3.86257
    R3        4.59203   0.03629   0.00000   0.05696   0.05696   4.64899
    R4        3.76056   0.06758   0.00000   0.10350   0.10350   3.86406
    R5        4.30858   0.04575   0.00000   0.06703   0.06703   4.37561
    R6        4.30858   0.04754   0.00000   0.06967   0.06967   4.37824
    R7        2.57003  -0.09788   0.00000  -0.07857  -0.07857   2.49146
    R8        2.57003  -0.09457   0.00000  -0.07591  -0.07591   2.49412
    R9        2.57003  -0.09712   0.00000  -0.07796  -0.07796   2.49207
   R10        2.57003  -0.09578   0.00000  -0.07688  -0.07688   2.49315
    A1        1.57080   0.02439   0.00000   0.04027   0.04012   1.61092
    A2        1.57080   0.00276   0.00000   0.00691   0.00738   1.57818
    A3        1.57080  -0.02679   0.00000  -0.04338  -0.04341   1.52739
    A4        1.57080  -0.00003   0.00000  -0.00007   0.00062   1.57142
    A5        1.57080  -0.01333   0.00000  -0.02856  -0.02859   1.54221
    A6        1.57080  -0.00061   0.00000   0.00621   0.00637   1.57716
    A7        1.57080  -0.00878   0.00000  -0.01467  -0.01474   1.55606
    A8        1.57080  -0.00093   0.00000   0.00149   0.00158   1.57237
    A9        1.57080  -0.00001   0.00000  -0.00001   0.00045   1.57125
   A10        1.57080   0.00302   0.00000  -0.00309  -0.00289   1.56791
   A11        1.57080   0.02304   0.00000   0.04173   0.04177   1.61256
   A12        1.57080  -0.00272   0.00000  -0.00683  -0.00644   1.56436
   A13        1.91063   0.05518   0.00000   0.08732   0.08449   1.99512
   A14        1.91063   0.01857   0.00000   0.03765   0.03472   1.94535
   A15        1.91063  -0.01184   0.00000   0.00883   0.00403   1.91466
   A16        1.91063   0.04196   0.00000   0.06886   0.06600   1.97664
   A17        1.91063   0.03120   0.00000   0.05426   0.05135   1.96198
   A18        1.91063  -0.01336   0.00000   0.00574   0.00089   1.91152
   A19        3.14159   0.02377   0.00000   0.04647   0.04649   3.18808
   A20        3.14159  -0.00240   0.00000  -0.00312  -0.00329   3.13830
   A21        3.14159   0.00273   0.00000   0.00685   0.00800   3.14959
   A22        3.14159  -0.00275   0.00000  -0.00690  -0.00651   3.13509
   A23        3.14159  -0.01426   0.00000  -0.02707  -0.02705   3.11454
   A24        3.14159   0.02211   0.00000   0.04322   0.04304   3.18463
    D1       -0.23600   0.01330   0.00000   0.03842   0.03970  -0.19630
    D2       -2.33039  -0.01736   0.00000  -0.04891  -0.04943  -2.37982
    D3        1.33480   0.01606   0.00000   0.04534   0.04594   1.38074
    D4       -0.75960  -0.01460   0.00000  -0.04200  -0.04318  -0.80278
    D5        2.90559   0.01605   0.00000   0.04532   0.04620   2.95180
    D6        0.81120  -0.01461   0.00000  -0.04201  -0.04292   0.76828
    D7       -1.80679   0.01333   0.00000   0.03849   0.03967  -1.76712
    D8        2.38200  -0.01733   0.00000  -0.04885  -0.04945   2.33254
    D9       -1.39883  -0.00112   0.00000  -0.00313  -0.00383  -1.40266
   D10        0.69557   0.02709   0.00000   0.07930   0.07960   0.77517
   D11        2.78996  -0.02739   0.00000  -0.08225  -0.08291   2.70705
   D12       -1.39883   0.00083   0.00000   0.00018   0.00052  -1.39831
   D13       -1.16283  -0.01346   0.00000  -0.03944  -0.03939  -1.20222
   D14        0.93157   0.01498   0.00000   0.04298   0.04432   0.97589
   D15       -2.73362  -0.01622   0.00000  -0.04635  -0.04671  -2.78034
   D16       -0.63923   0.01222   0.00000   0.03607   0.03700  -0.60223
   D17        1.97877  -0.01621   0.00000  -0.04634  -0.04716   1.93161
   D18       -2.21002   0.01223   0.00000   0.03608   0.03656  -2.17347
   D19        0.40797  -0.01349   0.00000  -0.03950  -0.04059   0.36738
   D20        2.50236   0.01495   0.00000   0.04292   0.04313   2.54549
         Item               Value     Threshold  Converged?
 Maximum Force            0.097883     0.000450     NO 
 RMS     Force            0.035543     0.000300     NO 
 Maximum Displacement     0.280683     0.001800     NO 
 RMS     Displacement     0.076533     0.001200     NO 
 Predicted change in Energy=-7.198913D-02
 GradGradGradGradGradGradGradGradGradGradGradGradGradGradGradGradGradGrad

                          Input orientation:                          
 ---------------------------------------------------------------------
 Center     Atomic      Atomic             Coordinates (Angstroms)
 Number     Number       Type             X           Y           Z
 ---------------------------------------------------------------------
      1         78           0       -0.321871    0.358244   -0.003920
      2         35           0       -0.242812    2.819653   -0.016243
      3          7           0       -2.365163    0.342101    0.046713
      4          8           0       -2.911413    1.517179    0.289699
      5          8           0       -2.819790   -0.546940    0.909774
      6         35           0       -0.331203    0.352696    2.456197
      7          7           0        1.722765    0.381373    0.000661
      8          8           0        2.241022    0.818019   -1.130641
      9          8           0        2.215725    1.075675    1.008398
     10         17           0       -0.288983   -1.956987   -0.010055
     11         17           0       -0.413314    0.348156   -2.318959
 ---------------------------------------------------------------------
                    Distance matrix (angstroms):
                    1          2          3          4          5
     1  Pt   0.000000
     2  Br   2.462709   0.000000
     3  N    2.043983   3.262913   0.000000
     4  O    2.852205   2.985208   1.318423   0.000000
     5  O    2.809590   4.339617   1.319832   2.157192   0.000000
     6  Br   2.460141   3.493801   3.153207   3.564718   3.064936
     7  N    2.044772   3.131931   4.088376   4.780084   4.724729
     8  O    2.837131   3.379032   4.778034   5.390156   5.624787
     9  O    2.824692   3.183670   4.737880   5.196056   5.291410
    10  Cl   2.315472   4.776867   3.098315   4.363121   3.039623
    11  Cl   2.316866   3.382288   3.066945   3.796341   4.125172
                    6          7          8          9         10
     6  Br   0.000000
     7  N    3.201447   0.000000
     8  O    4.438274   1.318747   0.000000
     9  O    3.017559   1.319317   2.154649   0.000000
    10  Cl   3.379174   3.084667   3.918838   4.062984   0.000000
    11  Cl   4.775864   3.153502   2.945908   4.302608   3.264993
                   11
    11  Cl   0.000000
 Stoichiometry    Br2Cl2N2O4Pt(2-)
 Framework group  C1[X(Br2Cl2N2O4Pt)]
 Deg. of freedom    27
 Full point group                 C1      NOp   1
 Largest Abelian subgroup         C1      NOp   1
 Largest concise Abelian subgroup C1      NOp   1
                         Standard orientation:                         
 ---------------------------------------------------------------------
 Center     Atomic      Atomic             Coordinates (Angstroms)
 Number     Number       Type             X           Y           Z
 ---------------------------------------------------------------------
      1         78           0        0.004659    0.351369    0.004415
      2         35           0        1.565240   -1.449756    0.625280
      3          7           0       -0.856850    0.355947    1.857966
      4          8           0       -0.513899   -0.664971    2.618458
      5          8           0       -2.172239    0.429793    1.778890
      6         35           0       -1.668070   -1.312995   -0.691401
      7          7           0        0.833641    0.304192   -1.864182
      8          8           0        2.076605    0.743818   -1.893568
      9          8           0        0.777471   -0.895944   -2.409266
     10         17           0       -1.408343    2.056132   -0.672802
     11         17           0        1.529200    1.930157    0.746759
 ---------------------------------------------------------------------
 Rotational constants (GHZ):      0.4401202      0.4030719      0.3653888
 Basis read from rwf:  (5D, 7F)
 Pseudo-potential data read from rwf file.
 There are   222 symmetry adapted cartesian basis functions of A   symmetry.
 There are   206 symmetry adapted basis functions of A   symmetry.
   206 basis functions,   427 primitive gaussians,   222 cartesian basis functions
    85 alpha electrons       85 beta electrons
       nuclear repulsion energy      2056.2321716348 Hartrees.
 NAtoms=   11 NActive=   11 NUniq=   11 SFac= 1.00D+00 NAtFMM=   60 NAOKFM=F Big=F
 Integral buffers will be    131072 words long.
 Raffenetti 2 integral format.
 Two-electron integral symmetry is turned on.
 ------------------------------------------------------------------------------
 Polarizable Continuum Model (PCM)
 =================================
 Model                : PCM (using non-symmetric T matrix).
 Atomic radii         : UFF (Universal Force Field).
 Polarization charges : Total charges.
 Charge compensation  : None.
 Solution method      : On-the-fly selection.
 Cavity type          : Scaled VdW (van der Waals Surface) (Alpha=1.100).
 Cavity algorithm     : GePol (No added spheres)
                        Default sphere list used, NSphG=   11.
                        Lebedev-Laikov grids with approx.  5.0 points / Ang**2.
                        Smoothing algorithm: Karplus/York (Gamma=1.0000).
                        Polarization charges: spherical gaussians, with
                                              point-specific exponents (IZeta= 3).
                        Self-potential: point-specific (ISelfS= 7).
                        Self-field    : sphere-specific E.n sum rule (ISelfD= 2).
 1st derivatives      : Analytical E(r).r(x)/FMM algorithm (CHGder, D1EAlg=3).
                        Cavity 1st derivative terms included.
 Solvent              : Water, Eps=  78.355300 Eps(inf)=   1.777849
 ------------------------------------------------------------------------------
 Spheres list:
 ISph  on   Nord     Re0    Alpha      Xe            Ye            Ze
    1  Pt      1    1.3770  1.100      0.004659      0.351369      0.004415
    2  Br      2    2.0945  1.100      1.565240     -1.449756      0.625280
    3   N      3    1.8300  1.100     -0.856850      0.355947      1.857966
    4   O      4    1.7500  1.100     -0.513899     -0.664971      2.618458
    5   O      5    1.7500  1.100     -2.172239      0.429793      1.778890
    6  Br      6    2.0945  1.100     -1.668070     -1.312995     -0.691401
    7   N      7    1.8300  1.100      0.833641      0.304192     -1.864182
    8   O      8    1.7500  1.100      2.076605      0.743818     -1.893568
    9   O      9    1.7500  1.100      0.777471     -0.895944     -2.409266
   10  Cl     10    1.9735  1.100     -1.408343      2.056132     -0.672802
   11  Cl     11    1.9735  1.100      1.529200      1.930157      0.746759
 ------------------------------------------------------------------------------
 One-electron integrals computed using PRISM.
   1 Symmetry operations used in ECPInt.
 ECPInt:  NShTT=    3570 NPrTT=   17235 LenC2=    3321 LenP2D=   11137.
 LDataN:  DoStor=T MaxTD1= 6 Len=  172
 NBasis=   206 RedAO= T EigKep=  4.86D-03  NBF=   206
 NBsUse=   206 1.00D-06 EigRej= -1.00D+00 NBFU=   206
 Defaulting to unpruned grid for atomic number  78.
 Initial guess from the checkpoint file:  "/home/scr/diego/Gau-6129.chk"
 B after Tr=     0.000000    0.000000    0.000000
         Rot=    0.998174    0.045641    0.030746   -0.024921 Ang=   6.93 deg.
 ExpMin= 2.90D-02 ExpMax= 1.13D+05 ExpMxC= 1.70D+04 IAcc=3 IRadAn=         5 AccDes= 0.00D+00
 Harris functional with IExCor=  402 and IRadAn=       5 diagonalized for initial guess.
 HarFok:  IExCor=  402 AccDes= 0.00D+00 IRadAn=         5 IDoV= 1 UseB2=F ITyADJ=14
 ICtDFT=  3500011 ScaDFX=  1.000000  1.000000  1.000000  1.000000
 Defaulting to unpruned grid for atomic number  78.
 Defaulting to unpruned grid for atomic number  78.
 Defaulting to unpruned grid for atomic number  78.
 Defaulting to unpruned grid for atomic number  78.
 Defaulting to unpruned grid for atomic number  78.
 Defaulting to unpruned grid for atomic number  78.
 Defaulting to unpruned grid for atomic number  78.
 Defaulting to unpruned grid for atomic number  78.
 FoFCou: FMM=F IPFlag=           0 FMFlag=      100000 FMFlg1=           0
         NFxFlg=           0 DoJE=T BraDBF=F KetDBF=T FulRan=T
         wScrn=  0.000000 ICntrl=     500 IOpCl=  0 I1Cent=   200000004 NGrid=           0
         NMat0=    1 NMatS0=      1 NMatT0=    0 NMatD0=    1 NMtDS0=    0 NMtDT0=    0
 Petite list used in FoFCou.
 Keep R1 ints in memory in canonical form, NReq=233390505.
 Requested convergence on RMS density matrix=1.00D-08 within 128 cycles.
 Requested convergence on MAX density matrix=1.00D-06.
 Requested convergence on             energy=1.00D-06.
 No special actions if energy rises.
 Defaulting to unpruned grid for atomic number  78.
 Defaulting to unpruned grid for atomic number  78.
 Defaulting to unpruned grid for atomic number  78.
 Defaulting to unpruned grid for atomic number  78.
 Defaulting to unpruned grid for atomic number  78.
 Defaulting to unpruned grid for atomic number  78.
 Defaulting to unpruned grid for atomic number  78.
 Defaulting to unpruned grid for atomic number  78.
 Inv3:  Mode=1 IEnd=     7422987.
 Iteration    1 A*A^-1 deviation from unit magnitude is 6.55D-15 for     12.
 Iteration    1 A*A^-1 deviation from orthogonality  is 4.54D-15 for    649     37.
 Iteration    1 A^-1*A deviation from unit magnitude is 6.44D-15 for    795.
 Iteration    1 A^-1*A deviation from orthogonality  is 1.21D-10 for   1228    643.
 Iteration    2 A*A^-1 deviation from unit magnitude is 9.33D-15 for    400.
 Iteration    2 A*A^-1 deviation from orthogonality  is 5.04D-15 for    388    282.
 Iteration    2 A^-1*A deviation from unit magnitude is 2.11D-15 for    162.
 Iteration    2 A^-1*A deviation from orthogonality  is 6.25D-16 for   1306    353.
 Error on total polarization charges =  0.01327
 SCF Done:  E(RB3LYP) =  -6597.27547770     A.U. after   16 cycles
            NFock= 16  Conv=0.56D-08     -V/T= 2.0142
   1 Symmetry operations used in ECPInt.
 ECPInt:  NShTT=    3570 NPrTT=   17235 LenC2=    3321 LenP2D=   11137.
 LDataN:  DoStor=T MaxTD1= 7 Len=  274
 D1PCM: PCM CHGder 1st derivatives, ID1Alg=3 FixD1E=F DoIter=F DoCFld=F I1PDM=0.
 Calling FoFJK, ICntrl=      2127 FMM=F ISym2X=0 I1Cent= 0 IOpClX= 0 NMat=1 NMatS=1 NMatT=0.
 Defaulting to unpruned grid for atomic number  78.
 Defaulting to unpruned grid for atomic number  78.
 Defaulting to unpruned grid for atomic number  78.
 Defaulting to unpruned grid for atomic number  78.
 Defaulting to unpruned grid for atomic number  78.
 Defaulting to unpruned grid for atomic number  78.
 Defaulting to unpruned grid for atomic number  78.
 Defaulting to unpruned grid for atomic number  78.
 ***** Axes restored to original set *****
 -------------------------------------------------------------------
 Center     Atomic                   Forces (Hartrees/Bohr)
 Number     Number              X              Y              Z
 -------------------------------------------------------------------
      1       78          -0.000917057   -0.020711963   -0.009515340
      2       35           0.004556399    0.025517327   -0.001356536
      3        7          -0.088817540    0.046394442    0.150188006
      4        8           0.028392108   -0.061505224   -0.053649813
      5        8           0.026397017    0.022399889   -0.078833342
      6       35          -0.002759166   -0.000754185    0.026061774
      7        7           0.090991293    0.157491981   -0.013373372
      8        8          -0.029436432   -0.063994580    0.050271470
      9        8          -0.026232369   -0.072492776   -0.036475581
     10       17           0.002930865   -0.031576761   -0.001547550
     11       17          -0.005105117   -0.000768151   -0.031769715
 -------------------------------------------------------------------
 Cartesian Forces:  Max     0.157491981 RMS     0.054890626

 GradGradGradGradGradGradGradGradGradGradGradGradGradGradGradGradGradGrad
 Berny optimization.
 Using GEDIIS/GDIIS optimizer.
 FormGI is forming the generalized inverse of G from B-inverse, IUseBI=4.
 Internal  Forces:  Max     0.076506141 RMS     0.025359160
 Search for a local minimum.
 Step number   2 out of a maximum of   64
 All quantities printed in internal units (Hartrees-Bohrs-Radians)
 Mixed Optimization -- RFO/linear search
 Update second derivatives using D2CorX and points    1    2
 DE= -7.07D-02 DEPred=-7.20D-02 R= 9.81D-01
 TightC=F SS=  1.41D+00  RLast= 3.63D-01 DXNew= 5.0454D-01 1.0876D+00
 Trust test= 9.81D-01 RLast= 3.63D-01 DXMaxT set to 5.05D-01
 ITU=  1  0
 Use linear search instead of GDIIS.
 Linear search step of   0.595 exceeds DXMaxT=   0.505 but not scaled.
 Quartic linear search produced a step of  2.00000.
 Iteration  1 RMS(Cart)=  0.14171450 RMS(Int)=  0.01269260
 Iteration  2 RMS(Cart)=  0.01062209 RMS(Int)=  0.00709388
 Iteration  3 RMS(Cart)=  0.00013955 RMS(Int)=  0.00709266
 Iteration  4 RMS(Cart)=  0.00000212 RMS(Int)=  0.00709266
 Iteration  5 RMS(Cart)=  0.00000003 RMS(Int)=  0.00709266
 Variable       Old X    -DE/DX   Delta X   Delta X   Delta X     New X
                                 (Linear)    (Quad)   (Total)
    R1        4.65385   0.02566   0.12362   0.00000   0.12362   4.77747
    R2        3.86257   0.03436   0.20403   0.00000   0.20405   4.06662
    R3        4.64899   0.02607   0.11391   0.00000   0.11391   4.76291
    R4        3.86406   0.03557   0.20701   0.00000   0.20698   4.07104
    R5        4.37561   0.03162   0.13407   0.00000   0.13407   4.50968
    R6        4.37824   0.03195   0.13933   0.00000   0.13933   4.51758
    R7        2.49146  -0.07651  -0.15714   0.00000  -0.15714   2.33432
    R8        2.49412  -0.07569  -0.15181   0.00000  -0.15181   2.34231
    R9        2.49207  -0.07585  -0.15591   0.00000  -0.15591   2.33616
   R10        2.49315  -0.07580  -0.15376   0.00000  -0.15376   2.33939
    A1        1.61092   0.00062   0.08024   0.00000   0.07900   1.68992
    A2        1.57818   0.00126   0.01476   0.00000   0.01743   1.59561
    A3        1.52739  -0.00949  -0.08682   0.00000  -0.08634   1.44104
    A4        1.57142  -0.00013   0.00124   0.00000   0.00534   1.57676
    A5        1.54221  -0.00482  -0.05717   0.00000  -0.05666   1.48555
    A6        1.57716   0.00650   0.01274   0.00000   0.01367   1.59083
    A7        1.55606  -0.00246  -0.02948   0.00000  -0.03024   1.52582
    A8        1.57237   0.00012   0.00316   0.00000   0.00407   1.57644
    A9        1.57125   0.00052   0.00090   0.00000   0.00365   1.57489
   A10        1.56791   0.00245  -0.00577   0.00000  -0.00470   1.56321
   A11        1.61256   0.00722   0.08353   0.00000   0.08299   1.69555
   A12        1.56436  -0.00100  -0.01288   0.00000  -0.01051   1.55384
   A13        1.99512   0.01314   0.16898   0.00000   0.15131   2.14643
   A14        1.94535   0.00474   0.06944   0.00000   0.05107   1.99642
   A15        1.91466   0.01098   0.00806   0.00000  -0.01536   1.89931
   A16        1.97664   0.00642   0.13200   0.00000   0.11488   2.09151
   A17        1.96198   0.01120   0.10270   0.00000   0.08511   2.04709
   A18        1.91152   0.01105   0.00178   0.00000  -0.02136   1.89016
   A19        3.18808   0.00712   0.09297   0.00000   0.09267   3.28075
   A20        3.13830  -0.00887  -0.00658   0.00000  -0.00735   3.13096
   A21        3.14959   0.00113   0.01600   0.00000   0.02278   3.17237
   A22        3.13509  -0.00135  -0.01302   0.00000  -0.01075   3.12434
   A23        3.11454  -0.00477  -0.05411   0.00000  -0.05339   3.06115
   A24        3.18463   0.00724   0.08608   0.00000   0.08445   3.26908
    D1       -0.19630   0.01349   0.07939   0.00000   0.08578  -0.11052
    D2       -2.37982  -0.01582  -0.09885   0.00000  -0.10025  -2.48007
    D3        1.38074   0.01454   0.09188   0.00000   0.09439   1.47513
    D4       -0.80278  -0.01477  -0.08637   0.00000  -0.09164  -0.89442
    D5        2.95180   0.01484   0.09241   0.00000   0.09653   3.04833
    D6        0.76828  -0.01447  -0.08584   0.00000  -0.08950   0.67878
    D7       -1.76712   0.01373   0.07934   0.00000   0.08518  -1.68194
    D8        2.33254  -0.01558  -0.09891   0.00000  -0.10084   2.23170
    D9       -1.40266   0.00023  -0.00766   0.00000  -0.01210  -1.41475
   D10        0.77517   0.02625   0.15920   0.00000   0.15792   0.93308
   D11        2.70705  -0.02625  -0.16583   0.00000  -0.16787   2.53918
   D12       -1.39831  -0.00023   0.00103   0.00000   0.00215  -1.39616
   D13       -1.20222  -0.01424  -0.07879   0.00000  -0.07695  -1.27917
   D14        0.97589   0.01490   0.08864   0.00000   0.09555   1.07144
   D15       -2.78034  -0.01548  -0.09342   0.00000  -0.09392  -2.87425
   D16       -0.60223   0.01365   0.07401   0.00000   0.07858  -0.52365
   D17        1.93161  -0.01600  -0.09431   0.00000  -0.09753   1.83408
   D18       -2.17347   0.01313   0.07312   0.00000   0.07497  -2.09850
   D19        0.36738  -0.01508  -0.08118   0.00000  -0.08605   0.28133
   D20        2.54549   0.01406   0.08625   0.00000   0.08644   2.63193
         Item               Value     Threshold  Converged?
 Maximum Force            0.076506     0.000450     NO 
 RMS     Force            0.025359     0.000300     NO 
 Maximum Displacement     0.464203     0.001800     NO 
 RMS     Displacement     0.140794     0.001200     NO 
 Predicted change in Energy=-5.776226D-02
 GradGradGradGradGradGradGradGradGradGradGradGradGradGradGradGradGradGrad

                          Input orientation:                          
 ---------------------------------------------------------------------
 Center     Atomic      Atomic             Coordinates (Angstroms)
 Number     Number       Type             X           Y           Z
 ---------------------------------------------------------------------
      1         78           0       -0.326734    0.395443   -0.016583
      2         35           0       -0.079190    2.911014   -0.061915
      3          7           0       -2.472996    0.352348    0.133904
      4          8           0       -3.157059    1.369761    0.284951
      5          8           0       -2.916582   -0.540729    0.870106
      6         35           0       -0.364930    0.381769    2.503513
      7          7           0        1.826374    0.464077    0.004260
      8          8           0        2.441864    0.772241   -1.022628
      9          8           0        2.367034    1.027004    0.965159
     10         17           0       -0.232412   -1.989014   -0.037871
     11         17           0       -0.600408    0.365255   -2.391273
 ---------------------------------------------------------------------
                    Distance matrix (angstroms):
                    1          2          3          4          5
     1  Pt   0.000000
     2  Br   2.528128   0.000000
     3  N    2.151963   3.509335   0.000000
     4  O    3.008480   3.459633   1.235268   0.000000
     5  O    2.893086   4.564427   1.239495   2.012512   0.000000
     6  Br   2.520422   3.613883   3.171727   3.700557   3.167010
     7  N    2.154303   3.102105   4.302775   5.072835   4.924933
     8  O    2.969721   3.442824   5.066530   5.780548   5.832605
     9  O    2.935826   3.253980   4.957019   5.576358   5.512116
    10  Cl   2.386417   4.902483   3.245258   4.465327   3.182251
    11  Cl   2.390599   3.489767   3.143767   3.835058   4.101471
                    6          7          8          9         10
     6  Br   0.000000
     7  N    3.324884   0.000000
     8  O    4.523741   1.236242   0.000000
     9  O    3.201014   1.237952   2.005443   0.000000
    10  Cl   3.478046   3.202816   3.968127   4.106039   0.000000
    11  Cl   4.900475   3.411395   3.360691   4.528715   3.349106
                   11
    11  Cl   0.000000
 Stoichiometry    Br2Cl2N2O4Pt(2-)
 Framework group  C1[X(Br2Cl2N2O4Pt)]
 Deg. of freedom    27
 Full point group                 C1      NOp   1
 Largest Abelian subgroup         C1      NOp   1
 Largest concise Abelian subgroup C1      NOp   1
                         Standard orientation:                         
 ---------------------------------------------------------------------
 Center     Atomic      Atomic             Coordinates (Angstroms)
 Number     Number       Type             X           Y           Z
 ---------------------------------------------------------------------
      1         78           0       -0.032092    0.333050   -0.089352
      2         35           0        1.740184   -0.966838    1.159954
      3          7           0       -1.308280    0.714819    1.600778
      4          8           0       -1.109609    0.225563    2.717489
      5          8           0       -2.520753    0.658729    1.349554
      6         35           0       -1.425978   -1.743828   -0.399485
      7          7           0        1.171441   -0.205534   -1.793012
      8          8           0        2.259686    0.351087   -1.977916
      9          8           0        1.306200   -1.412294   -2.034043
     10         17           0       -1.498324    1.544239   -1.530938
     11         17           0        1.085361    2.381983    0.428466
 ---------------------------------------------------------------------
 Rotational constants (GHZ):      0.4112688      0.3720748      0.3455194
 Basis read from rwf:  (5D, 7F)
 Pseudo-potential data read from rwf file.
 There are   222 symmetry adapted cartesian basis functions of A   symmetry.
 There are   206 symmetry adapted basis functions of A   symmetry.
   206 basis functions,   427 primitive gaussians,   222 cartesian basis functions
    85 alpha electrons       85 beta electrons
       nuclear repulsion energy      1996.2408480629 Hartrees.
 NAtoms=   11 NActive=   11 NUniq=   11 SFac= 1.00D+00 NAtFMM=   60 NAOKFM=F Big=F
 Integral buffers will be    131072 words long.
 Raffenetti 2 integral format.
 Two-electron integral symmetry is turned on.
 ------------------------------------------------------------------------------
 Polarizable Continuum Model (PCM)
 =================================
 Model                : PCM (using non-symmetric T matrix).
 Atomic radii         : UFF (Universal Force Field).
 Polarization charges : Total charges.
 Charge compensation  : None.
 Solution method      : On-the-fly selection.
 Cavity type          : Scaled VdW (van der Waals Surface) (Alpha=1.100).
 Cavity algorithm     : GePol (No added spheres)
                        Default sphere list used, NSphG=   11.
                        Lebedev-Laikov grids with approx.  5.0 points / Ang**2.
                        Smoothing algorithm: Karplus/York (Gamma=1.0000).
                        Polarization charges: spherical gaussians, with
                                              point-specific exponents (IZeta= 3).
                        Self-potential: point-specific (ISelfS= 7).
                        Self-field    : sphere-specific E.n sum rule (ISelfD= 2).
 1st derivatives      : Analytical E(r).r(x)/FMM algorithm (CHGder, D1EAlg=3).
                        Cavity 1st derivative terms included.
 Solvent              : Water, Eps=  78.355300 Eps(inf)=   1.777849
 ------------------------------------------------------------------------------
 Spheres list:
 ISph  on   Nord     Re0    Alpha      Xe            Ye            Ze
    1  Pt      1    1.3770  1.100     -0.032092      0.333050     -0.089352
    2  Br      2    2.0945  1.100      1.740184     -0.966838      1.159954
    3   N      3    1.8300  1.100     -1.308280      0.714819      1.600778
    4   O      4    1.7500  1.100     -1.109609      0.225563      2.717489
    5   O      5    1.7500  1.100     -2.520753      0.658729      1.349554
    6  Br      6    2.0945  1.100     -1.425978     -1.743828     -0.399485
    7   N      7    1.8300  1.100      1.171441     -0.205534     -1.793012
    8   O      8    1.7500  1.100      2.259686      0.351087     -1.977916
    9   O      9    1.7500  1.100      1.306200     -1.412294     -2.034043
   10  Cl     10    1.9735  1.100     -1.498324      1.544239     -1.530938
   11  Cl     11    1.9735  1.100      1.085361      2.381983      0.428466
 ------------------------------------------------------------------------------
 One-electron integrals computed using PRISM.
   1 Symmetry operations used in ECPInt.
 ECPInt:  NShTT=    3570 NPrTT=   17235 LenC2=    3288 LenP2D=   10991.
 LDataN:  DoStor=T MaxTD1= 6 Len=  172
 NBasis=   206 RedAO= T EigKep=  5.35D-03  NBF=   206
 NBsUse=   206 1.00D-06 EigRej= -1.00D+00 NBFU=   206
 Defaulting to unpruned grid for atomic number  78.
 Initial guess from the checkpoint file:  "/home/scr/diego/Gau-6129.chk"
 B after Tr=     0.000000    0.000000    0.000000
         Rot=    0.983213    0.153856    0.067078   -0.071557 Ang=  21.03 deg.
 ExpMin= 2.90D-02 ExpMax= 1.13D+05 ExpMxC= 1.70D+04 IAcc=3 IRadAn=         5 AccDes= 0.00D+00
 Harris functional with IExCor=  402 and IRadAn=       5 diagonalized for initial guess.
 HarFok:  IExCor=  402 AccDes= 0.00D+00 IRadAn=         5 IDoV= 1 UseB2=F ITyADJ=14
 ICtDFT=  3500011 ScaDFX=  1.000000  1.000000  1.000000  1.000000
 Defaulting to unpruned grid for atomic number  78.
 Defaulting to unpruned grid for atomic number  78.
 Defaulting to unpruned grid for atomic number  78.
 Defaulting to unpruned grid for atomic number  78.
 Defaulting to unpruned grid for atomic number  78.
 Defaulting to unpruned grid for atomic number  78.
 Defaulting to unpruned grid for atomic number  78.
 Defaulting to unpruned grid for atomic number  78.
 FoFCou: FMM=F IPFlag=           0 FMFlag=      100000 FMFlg1=           0
         NFxFlg=           0 DoJE=T BraDBF=F KetDBF=T FulRan=T
         wScrn=  0.000000 ICntrl=     500 IOpCl=  0 I1Cent=   200000004 NGrid=           0
         NMat0=    1 NMatS0=      1 NMatT0=    0 NMatD0=    1 NMtDS0=    0 NMtDT0=    0
 Petite list used in FoFCou.
 Keep R1 ints in memory in canonical form, NReq=233651667.
 Requested convergence on RMS density matrix=1.00D-08 within 128 cycles.
 Requested convergence on MAX density matrix=1.00D-06.
 Requested convergence on             energy=1.00D-06.
 No special actions if energy rises.
 Defaulting to unpruned grid for atomic number  78.
 Defaulting to unpruned grid for atomic number  78.
 Defaulting to unpruned grid for atomic number  78.
 Defaulting to unpruned grid for atomic number  78.
 Defaulting to unpruned grid for atomic number  78.
 Defaulting to unpruned grid for atomic number  78.
 Defaulting to unpruned grid for atomic number  78.
 Defaulting to unpruned grid for atomic number  78.
 Inv3:  Mode=1 IEnd=     8187312.
 Iteration    1 A*A^-1 deviation from unit magnitude is 7.33D-15 for    729.
 Iteration    1 A*A^-1 deviation from orthogonality  is 4.85D-15 for   1322    965.
 Iteration    1 A^-1*A deviation from unit magnitude is 7.11D-15 for    306.
 Iteration    1 A^-1*A deviation from orthogonality  is 1.35D-12 for    481    386.
 Error on total polarization charges =  0.01257
 SCF Done:  E(RB3LYP) =  -6597.33480814     A.U. after   16 cycles
            NFock= 16  Conv=0.71D-08     -V/T= 2.0142
   1 Symmetry operations used in ECPInt.
 ECPInt:  NShTT=    3570 NPrTT=   17235 LenC2=    3288 LenP2D=   10991.
 LDataN:  DoStor=T MaxTD1= 7 Len=  274
 D1PCM: PCM CHGder 1st derivatives, ID1Alg=3 FixD1E=F DoIter=F DoCFld=F I1PDM=0.
 Calling FoFJK, ICntrl=      2127 FMM=F ISym2X=0 I1Cent= 0 IOpClX= 0 NMat=1 NMatS=1 NMatT=0.
 Defaulting to unpruned grid for atomic number  78.
 Defaulting to unpruned grid for atomic number  78.
 Defaulting to unpruned grid for atomic number  78.
 Defaulting to unpruned grid for atomic number  78.
 Defaulting to unpruned grid for atomic number  78.
 Defaulting to unpruned grid for atomic number  78.
 Defaulting to unpruned grid for atomic number  78.
 Defaulting to unpruned grid for atomic number  78.
 ***** Axes restored to original set *****
 -------------------------------------------------------------------
 Center     Atomic                   Forces (Hartrees/Bohr)
 Number     Number              X              Y              Z
 -------------------------------------------------------------------
      1       78           0.000011311   -0.015109097   -0.005700611
      2       35          -0.006463297    0.007983010   -0.000074545
      3        7          -0.052071598    0.017346611    0.095847970
      4        8           0.024236836    0.037332851   -0.055808973
      5        8           0.028930547   -0.050268848   -0.031035749
      6       35           0.002506584    0.001004116    0.008167961
      7        7           0.056434058    0.098026971   -0.005091174
      8        8          -0.028023898   -0.049994185   -0.047378722
      9        8          -0.028067834   -0.038260866    0.050274157
     10       17           0.000353829   -0.008688489   -0.000390637
     11       17           0.002153463    0.000627926   -0.008809675
 -------------------------------------------------------------------
 Cartesian Forces:  Max     0.098026971 RMS     0.037070593

 GradGradGradGradGradGradGradGradGradGradGradGradGradGradGradGradGradGrad
 Berny optimization.
 Using GEDIIS/GDIIS optimizer.
 FormGI is forming the generalized inverse of G from B-inverse, IUseBI=4.
 Internal  Forces:  Max     0.072794057 RMS     0.019783000
 Search for a local minimum.
 Step number   3 out of a maximum of   64
 All quantities printed in internal units (Hartrees-Bohrs-Radians)
 Mixed Optimization -- RFO/linear search
 Update second derivatives using D2CorX and points    2    3
 ITU=  0  1  0
 Use linear search instead of GDIIS.
     Eigenvalues ---    0.00230   0.00230   0.01384   0.01428   0.06335
     Eigenvalues ---    0.06348   0.11192   0.11603   0.12558   0.12582
     Eigenvalues ---    0.12665   0.16114   0.19509   0.19735   0.20378
     Eigenvalues ---    0.21576   0.22001   0.24633   0.24938   0.24975
     Eigenvalues ---    0.24990   0.24995   0.32578   0.52925   0.52948
     Eigenvalues ---    0.52948   0.60718
 RFO step:  Lambda=-8.45218149D-02 EMin= 2.29986902D-03
 Quartic linear search produced a step of  0.01854.
 Iteration  1 RMS(Cart)=  0.06527893 RMS(Int)=  0.01213506
 Iteration  2 RMS(Cart)=  0.01334992 RMS(Int)=  0.00131686
 Iteration  3 RMS(Cart)=  0.00013966 RMS(Int)=  0.00131202
 Iteration  4 RMS(Cart)=  0.00000018 RMS(Int)=  0.00131202
 Variable       Old X    -DE/DX   Delta X   Delta X   Delta X     New X
                                 (Linear)    (Quad)   (Total)
    R1        4.77747   0.00731   0.00229   0.04155   0.04384   4.82131
    R2        4.06662  -0.00067   0.00378   0.02496   0.02875   4.09537
    R3        4.76291   0.00812   0.00211   0.04420   0.04631   4.80921
    R4        4.07104   0.00077   0.00384   0.02978   0.03361   4.10466
    R5        4.50968   0.00870   0.00249   0.04642   0.04891   4.55858
    R6        4.51758   0.00850   0.00258   0.04615   0.04873   4.56631
    R7        2.33432   0.01052  -0.00291  -0.01579  -0.01870   2.31562
    R8        2.34231   0.00740  -0.00282  -0.01952  -0.02234   2.31997
    R9        2.33616   0.01292  -0.00289  -0.01238  -0.01527   2.32088
   R10        2.33939   0.00937  -0.00285  -0.01701  -0.01986   2.31953
    A1        1.68992  -0.01747   0.00146  -0.05394  -0.05282   1.63709
    A2        1.59561  -0.00110   0.00032  -0.00252  -0.00199   1.59362
    A3        1.44104   0.00788  -0.00160   0.01001   0.00819   1.44923
    A4        1.57676  -0.00153   0.00010  -0.00583  -0.00557   1.57119
    A5        1.48555   0.00355  -0.00105   0.01146   0.01039   1.49594
    A6        1.59083   0.00898   0.00025   0.02834   0.02892   1.61976
    A7        1.52582   0.00327  -0.00056   0.00727   0.00663   1.53244
    A8        1.57644  -0.00230   0.00008  -0.00659  -0.00653   1.56991
    A9        1.57489   0.00063   0.00007   0.00345   0.00358   1.57848
   A10        1.56321   0.00060  -0.00009   0.01574   0.01591   1.57912
   A11        1.69555  -0.00438   0.00154  -0.01151  -0.00995   1.68560
   A12        1.55384   0.00000  -0.00019  -0.00087  -0.00097   1.55287
   A13        2.14643  -0.04345   0.00281  -0.06173  -0.06224   2.08419
   A14        1.99642  -0.02962   0.00095  -0.03209  -0.03432   1.96210
   A15        1.89931   0.06908  -0.00028   0.22081   0.21672   2.11603
   A16        2.09151  -0.04339   0.00213  -0.06307  -0.06452   2.02699
   A17        2.04709  -0.03217   0.00158  -0.03221  -0.03436   2.01273
   A18        1.89016   0.07279  -0.00040   0.23276   0.22802   2.11818
   A19        3.28075  -0.00849   0.00172  -0.02560  -0.02390   3.25685
   A20        3.13096  -0.00959  -0.00014  -0.04393  -0.04464   3.08632
   A21        3.17237  -0.00263   0.00042  -0.00836  -0.00756   3.16481
   A22        3.12434  -0.00070  -0.00020  -0.00459  -0.00474   3.11960
   A23        3.06115   0.00120  -0.00099   0.00436   0.00324   3.06439
   A24        3.26908  -0.00629   0.00157  -0.01703  -0.01556   3.25353
    D1       -0.11052   0.01099   0.00159   0.12603   0.12846   0.01794
    D2       -2.48007  -0.01315  -0.00186  -0.14006  -0.14171  -2.62177
    D3        1.47513   0.01176   0.00175   0.12935   0.13156   1.60669
    D4       -0.89442  -0.01238  -0.00170  -0.13674  -0.13860  -1.03302
    D5        3.04833   0.01170   0.00179   0.13062   0.13319  -3.10166
    D6        0.67878  -0.01245  -0.00166  -0.13547  -0.13697   0.54181
    D7       -1.68194   0.01136   0.00158   0.12861   0.13123  -1.55071
    D8        2.23170  -0.01279  -0.00187  -0.13747  -0.13893   2.09277
    D9       -1.41475   0.00232  -0.00022   0.00245   0.00074  -1.41401
   D10        0.93308   0.02556   0.00293   0.26077   0.26375   1.19684
   D11        2.53918  -0.02487  -0.00311  -0.26401  -0.26906   2.27012
   D12       -1.39616  -0.00163   0.00004  -0.00569  -0.00605  -1.40221
   D13       -1.27917  -0.01435  -0.00143  -0.14048  -0.14146  -1.42062
   D14        1.07144   0.01329   0.00177   0.13872   0.14117   1.21260
   D15       -2.87425  -0.01356  -0.00174  -0.13882  -0.14027  -3.01452
   D16       -0.52365   0.01408   0.00146   0.14038   0.14235  -0.38129
   D17        1.83408  -0.01421  -0.00181  -0.14241  -0.14389   1.69020
   D18       -2.09850   0.01343   0.00139   0.13679   0.13874  -1.95976
   D19        0.28133  -0.01433  -0.00160  -0.14363  -0.14484   0.13649
   D20        2.63193   0.01331   0.00160   0.13558   0.13778   2.76971
         Item               Value     Threshold  Converged?
 Maximum Force            0.072794     0.000450     NO 
 RMS     Force            0.019783     0.000300     NO 
 Maximum Displacement     0.175473     0.001800     NO 
 RMS     Displacement     0.070827     0.001200     NO 
 Predicted change in Energy=-6.656975D-02
 GradGradGradGradGradGradGradGradGradGradGradGradGradGradGradGradGradGrad

                          Input orientation:                          
 ---------------------------------------------------------------------
 Center     Atomic      Atomic             Coordinates (Angstroms)
 Number     Number       Type             X           Y           Z
 ---------------------------------------------------------------------
      1         78           0       -0.323081    0.394639    0.009927
      2         35           0       -0.172046    2.941012   -0.039559
      3          7           0       -2.483089    0.382323    0.185613
      4          8           0       -3.091780    1.445720    0.200321
      5          8           0       -2.897377   -0.596976    0.799226
      6         35           0       -0.307002    0.384955    2.554784
      7          7           0        1.844774    0.529754   -0.001335
      8          8           0        2.370133    0.707090   -1.097202
      9          8           0        2.348636    0.970507    1.027490
     10         17           0       -0.193219   -2.013992   -0.018588
     11         17           0       -0.610987    0.364134   -2.389052
 ---------------------------------------------------------------------
                    Distance matrix (angstroms):
                    1          2          3          4          5
     1  Pt   0.000000
     2  Br   2.551328   0.000000
     3  N    2.167176   3.455215   0.000000
     4  O    2.967612   3.289117   1.225371   0.000000
     5  O    2.869372   4.544046   1.227674   2.137543   0.000000
     6  Br   2.544927   3.644483   3.216883   3.797856   3.279667
     7  N    2.172091   3.143754   4.334407   5.024861   4.939476
     8  O    2.928611   3.545658   5.030393   5.662300   5.748365
     9  O    2.916356   3.372732   4.939665   5.523420   5.479942
    10  Cl   2.412297   4.955093   3.320773   4.518760   3.160574
    11  Cl   2.416385   3.514695   3.183394   3.745533   4.039360
                    6          7          8          9         10
     6  Br   0.000000
     7  N    3.344376   0.000000
     8  O    4.539584   1.228159   0.000000
     9  O    3.118960   1.227445   2.141067   0.000000
    10  Cl   3.519963   3.259502   3.890818   4.057405   0.000000
    11  Cl   4.953217   3.429196   3.267043   4.560681   3.383654
                   11
    11  Cl   0.000000
 Stoichiometry    Br2Cl2N2O4Pt(2-)
 Framework group  C1[X(Br2Cl2N2O4Pt)]
 Deg. of freedom    27
 Full point group                 C1      NOp   1
 Largest Abelian subgroup         C1      NOp   1
 Largest concise Abelian subgroup C1      NOp   1
                         Standard orientation:                         
 ---------------------------------------------------------------------
 Center     Atomic      Atomic             Coordinates (Angstroms)
 Number     Number       Type             X           Y           Z
 ---------------------------------------------------------------------
      1         78           0       -0.023926    0.331383   -0.080340
      2         35           0        1.797647   -1.143020    0.928266
      3          7           0       -0.979634    0.704886    1.828526
      4          8           0       -0.501563    0.218127    2.846391
      5          8           0       -2.188134    0.890993    1.718641
      6         35           0       -1.606804   -1.652481   -0.268570
      7          7           0        0.916115   -0.243517   -1.952182
      8          8           0        1.922057    0.386215   -2.268241
      9          8           0        0.771661   -1.419536   -2.272704
     10         17           0       -1.594305    1.721238   -1.272561
     11         17           0        1.335431    2.288098    0.322567
 ---------------------------------------------------------------------
 Rotational constants (GHZ):      0.4019802      0.3712662      0.3438443
 Basis read from rwf:  (5D, 7F)
 Pseudo-potential data read from rwf file.
 There are   222 symmetry adapted cartesian basis functions of A   symmetry.
 There are   206 symmetry adapted basis functions of A   symmetry.
   206 basis functions,   427 primitive gaussians,   222 cartesian basis functions
    85 alpha electrons       85 beta electrons
       nuclear repulsion energy      1984.8176850352 Hartrees.
 NAtoms=   11 NActive=   11 NUniq=   11 SFac= 1.00D+00 NAtFMM=   60 NAOKFM=F Big=F
 Integral buffers will be    131072 words long.
 Raffenetti 2 integral format.
 Two-electron integral symmetry is turned on.
[...]
 Cartesian Forces:  Max     0.000053266 RMS     0.000017462
 FormGI is forming the generalized inverse of G from B-inverse, IUseBI=4.

 GradGradGradGradGradGradGradGradGradGradGradGradGradGradGradGradGradGrad
 Berny optimization.
 Internal  Forces:  Max     0.000025657 RMS     0.000009200
 Search for a local minimum.
 Step number   1 out of a maximum of    2
 All quantities printed in internal units (Hartrees-Bohrs-Radians)
 Second derivative matrix not updated -- analytic derivatives used.
 ITU=  0
     Eigenvalues ---    0.00062   0.00150   0.02420   0.02450   0.04565
     Eigenvalues ---    0.05368   0.06499   0.06717   0.07846   0.08209
     Eigenvalues ---    0.08307   0.08894   0.09715   0.10182   0.10943
     Eigenvalues ---    0.11560   0.12978   0.13558   0.13967   0.17257
     Eigenvalues ---    0.19420   0.30094   0.36006   0.57440   0.57448
     Eigenvalues ---    0.82335   0.84688
 Angle between quadratic step and forces=  74.42 degrees.
 Linear search not attempted -- first point.
 Iteration  1 RMS(Cart)=  0.00028170 RMS(Int)=  0.00000007
 Iteration  2 RMS(Cart)=  0.00000008 RMS(Int)=  0.00000000
 Variable       Old X    -DE/DX   Delta X   Delta X   Delta X     New X
                                 (Linear)    (Quad)   (Total)
    R1        4.82141  -0.00001   0.00000  -0.00012  -0.00012   4.82130
    R2        4.04125   0.00000   0.00000   0.00008   0.00008   4.04133
    R3        4.82131  -0.00001   0.00000  -0.00006  -0.00006   4.82125
    R4        4.04161  -0.00002   0.00000  -0.00026  -0.00026   4.04135
    R5        4.58075   0.00000   0.00000  -0.00001  -0.00001   4.58074
    R6        4.58058   0.00001   0.00000   0.00012   0.00012   4.58070
    R7        2.30490  -0.00001   0.00000  -0.00002  -0.00002   2.30488
    R8        2.30483   0.00003   0.00000   0.00005   0.00005   2.30488
    R9        2.30484  -0.00001   0.00000  -0.00001  -0.00001   2.30483
   R10        2.30530   0.00000   0.00000   0.00000   0.00000   2.30530
    A1        1.57541   0.00000   0.00000  -0.00006  -0.00006   1.57534
    A2        1.57021   0.00000   0.00000   0.00001   0.00001   1.57021
    A3        1.57281   0.00001   0.00000   0.00012   0.00012   1.57293
    A4        1.56526   0.00000   0.00000   0.00001   0.00001   1.56527
    A5        1.57539  -0.00001   0.00000  -0.00006  -0.00006   1.57533
    A6        1.56530   0.00001   0.00000   0.00008   0.00008   1.56538
    A7        1.56527   0.00000   0.00000  -0.00005  -0.00005   1.56523
    A8        1.57295   0.00001   0.00000   0.00001   0.00001   1.57296
    A9        1.56527   0.00000   0.00000  -0.00005  -0.00005   1.56522
   A10        1.56971  -0.00002   0.00000  -0.00014  -0.00014   1.56957
   A11        1.56961   0.00000   0.00000   0.00009   0.00009   1.56970
   A12        1.58244   0.00000   0.00000   0.00004   0.00004   1.58248
   A13        2.06872   0.00002   0.00000   0.00016   0.00016   2.06889
   A14        2.06904  -0.00002   0.00000  -0.00015  -0.00015   2.06888
   A15        2.14537   0.00000   0.00000  -0.00001  -0.00001   2.14536
   A16        2.06379  -0.00001   0.00000  -0.00008  -0.00008   2.06371
   A17        2.07419   0.00002   0.00000   0.00010   0.00010   2.07429
   A18        2.14520   0.00000   0.00000  -0.00002  -0.00002   2.14518
   A19        3.14070   0.00001   0.00000   0.00002   0.00002   3.14072
   A20        3.14822   0.00001   0.00000   0.00006   0.00006   3.14827
   A21        3.13547   0.00000   0.00000   0.00001   0.00001   3.13548
   A22        3.14771   0.00000   0.00000   0.00004   0.00004   3.14775
   A23        3.14834   0.00000   0.00000  -0.00004  -0.00004   3.14829
   A24        3.14255   0.00001   0.00000   0.00010   0.00010   3.14265
    D1        0.79092   0.00000   0.00000  -0.00004  -0.00004   0.79088
    D2       -2.36171   0.00000   0.00000   0.00014   0.00014  -2.36157
    D3        2.36115   0.00000   0.00000  -0.00004  -0.00004   2.36111
    D4       -0.79148   0.00000   0.00000   0.00015   0.00015  -0.79133
    D5       -2.35678   0.00000   0.00000  -0.00009  -0.00009  -2.35687
    D6        0.77377   0.00000   0.00000   0.00010   0.00010   0.77387
    D7       -0.77432   0.00000   0.00000  -0.00005  -0.00005  -0.77437
    D8        2.35624   0.00000   0.00000   0.00013   0.00013   2.35637
    D9       -1.56220   0.00000   0.00000  -0.00070  -0.00070  -1.56289
   D10        1.57945   0.00000   0.00000  -0.00075  -0.00075   1.57870
   D11        1.56322   0.00000   0.00000  -0.00052  -0.00052   1.56270
   D12       -1.57832   0.00000   0.00000  -0.00057  -0.00057  -1.57889
   D13       -2.35572   0.00000   0.00000  -0.00064  -0.00064  -2.35636
   D14        0.78597   0.00000   0.00000  -0.00072  -0.00072   0.78524
   D15        2.35726   0.00000   0.00000  -0.00064  -0.00064   2.35661
   D16       -0.78425   0.00000   0.00000  -0.00073  -0.00073  -0.78498
   D17        0.79198   0.00000   0.00000  -0.00059  -0.00059   0.79139
   D18       -2.34952   0.00000   0.00000  -0.00068  -0.00068  -2.35020
   D19       -0.79046   0.00000   0.00000  -0.00063  -0.00063  -0.79109
   D20        2.35123   0.00000   0.00000  -0.00072  -0.00072   2.35051
         Item               Value     Threshold  Converged?
 Maximum Force            0.000026     0.000450     YES
 RMS     Force            0.000009     0.000300     YES
 Maximum Displacement     0.001152     0.001800     YES
 RMS     Displacement     0.000282     0.001200     YES
 Predicted change in Energy=-2.141970D-08
 Optimization completed.
    -- Stationary point found.
                           ----------------------------
                           !   Optimized Parameters   !
                           ! (Angstroms and Degrees)  !
 --------------------------                            --------------------------
 ! Name  Definition              Value          Derivative Info.                !
 --------------------------------------------------------------------------------
 ! R1    R(1,2)                  2.5514         -DE/DX =    0.0                 !
 ! R2    R(1,3)                  2.1385         -DE/DX =    0.0                 !
 ! R3    R(1,6)                  2.5513         -DE/DX =    0.0                 !
 ! R4    R(1,7)                  2.1387         -DE/DX =    0.0                 !
 ! R5    R(1,10)                 2.424          -DE/DX =    0.0                 !
 ! R6    R(1,11)                 2.4239         -DE/DX =    0.0                 !
 ! R7    R(3,4)                  1.2197         -DE/DX =    0.0                 !
 ! R8    R(3,5)                  1.2197         -DE/DX =    0.0                 !
 ! R9    R(7,8)                  1.2197         -DE/DX =    0.0                 !
 ! R10   R(7,9)                  1.2199         -DE/DX =    0.0                 !
 ! A1    A(2,1,3)               90.2641         -DE/DX =    0.0                 !
 ! A2    A(2,1,6)               89.9663         -DE/DX =    0.0                 !
 ! A3    A(2,1,7)               90.1154         -DE/DX =    0.0                 !
 ! A4    A(2,1,11)              89.683          -DE/DX =    0.0                 !
 ! A5    A(3,1,6)               90.2631         -DE/DX =    0.0                 !
 ! A6    A(3,1,10)              89.685          -DE/DX =    0.0                 !
 ! A7    A(3,1,11)              89.6836         -DE/DX =    0.0                 !
 ! A8    A(6,1,7)               90.1235         -DE/DX =    0.0                 !
 ! A9    A(6,1,10)              89.6836         -DE/DX =    0.0                 !
 ! A10   A(7,1,10)              89.9378         -DE/DX =    0.0                 !
 ! A11   A(7,1,11)              89.9322         -DE/DX =    0.0                 !
 ! A12   A(10,1,11)             90.667          -DE/DX =    0.0                 !
 ! A13   A(1,3,4)              118.5291         -DE/DX =    0.0                 !
 ! A14   A(1,3,5)              118.547          -DE/DX =    0.0                 !
 ! A15   A(4,3,5)              122.9206         -DE/DX =    0.0                 !
 ! A16   A(1,7,8)              118.2467         -DE/DX =    0.0                 !
 ! A17   A(1,7,9)              118.8425         -DE/DX =    0.0                 !
 ! A18   A(8,7,9)              122.9109         -DE/DX =    0.0                 !
 ! A19   L(2,1,10,3,-1)        179.9491         -DE/DX =    0.0                 !
 ! A20   L(3,1,7,2,-1)         180.3795         -DE/DX =    0.0                 !
 ! A21   L(6,1,11,2,-1)        179.6493         -DE/DX =    0.0                 !
 ! A22   L(2,1,10,3,-2)        180.3503         -DE/DX =    0.0                 !
 ! A23   L(3,1,7,2,-2)         180.3863         -DE/DX =    0.0                 !
 ! A24   L(6,1,11,2,-2)        180.0549         -DE/DX =    0.0                 !
 ! D1    D(2,1,3,4)             45.3166         -DE/DX =    0.0                 !
 ! D2    D(2,1,3,5)           -135.3158         -DE/DX =    0.0                 !
 ! D3    D(6,1,3,4)            135.2841         -DE/DX =    0.0                 !
 ! D4    D(6,1,3,5)            -45.3483         -DE/DX =    0.0                 !
 ! D5    D(10,1,3,4)          -135.0338         -DE/DX =    0.0                 !
 ! D6    D(10,1,3,5)            44.3339         -DE/DX =    0.0                 !
 ! D7    D(11,1,3,4)           -44.365          -DE/DX =    0.0                 !
 ! D8    D(11,1,3,5)           135.0027         -DE/DX =    0.0                 !
 ! D9    D(4,3,7,8)            -89.5072         -DE/DX =    0.0                 !
 ! D10   D(4,3,7,9)             90.4956         -DE/DX =    0.0                 !
 ! D11   D(5,3,7,8)             89.5659         -DE/DX =    0.0                 !
 ! D12   D(5,3,7,9)            -90.4313         -DE/DX =    0.0                 !
 ! D13   D(2,1,7,8)           -134.9727         -DE/DX =    0.0                 !
 ! D14   D(2,1,7,9)             45.0326         -DE/DX =    0.0                 !
 ! D15   D(6,1,7,8)            135.0608         -DE/DX =    0.0                 !
 ! D16   D(6,1,7,9)            -44.934          -DE/DX =    0.0                 !
 ! D17   D(10,1,7,8)            45.3773         -DE/DX =    0.0                 !
 ! D18   D(10,1,7,9)          -134.6175         -DE/DX =    0.0                 !
 ! D19   D(11,1,7,8)           -45.2898         -DE/DX =    0.0                 !
 ! D20   D(11,1,7,9)           134.7154         -DE/DX =    0.0                 !
 --------------------------------------------------------------------------------
 GradGradGradGradGradGradGradGradGradGradGradGradGradGradGradGradGradGrad

 1\1\GINC-NEQC17\Freq\RB3LYP\Gen\Br2Cl2N2O4Pt1(2-)\DIEGO\18-Aug-2021\0\
 \#N Geom=AllCheck Guess=TCheck SCRF=Check GenChk RB3LYP/ChkBas Freq\\E
 strutura 39\\-2,1\Pt,-0.319513508,0.4942699379,0.1041899095\Br,-0.4277
 206956,3.0326192679,0.3379093838\N,-2.4493127257,0.3792874403,0.259327
 7908\O,-3.123628209,1.1646389175,-0.3857968753\O,-2.935893971,-0.47613
 95821,0.9797849594\Br,-0.1112104667,0.2714280526,2.6372160673\N,1.8099
 387693,0.5964388025,-0.0665791104\O,2.3516419566,-0.0648038915,-0.9365
 872585\O,2.4287291949,1.3095441657,0.7059276591\Cl,-0.2177118007,-1.91
 87427686,-0.1029836537\Cl,-0.5203563341,0.7206265678,-2.3007857622\\Ve
 rsion=EM64L-G09RevD.01\State=1-A\HF=-6597.4076223\RMSD=4.721e-09\RMSF=
 1.746e-05\ZeroPoint=0.027552\Thermal=0.0427125\Dipole=0.0308233,0.7618
 537,0.910701\DipoleDeriv=1.0195654,-0.0119674,0.0268579,-0.0138441,1.3
 108771,-0.0095491,0.0245312,-0.0098387,1.3051224,-0.1280638,0.0443244,
 0.058957,0.0432995,-1.2388217,-0.1024077,0.0287006,-0.0785288,-0.08761
 18,2.5367872,0.0945509,0.0678078,0.0145743,1.4750733,-0.8825862,-0.027
 7886,-0.8935738,1.1381394,-1.9573972,0.3312617,-0.3155257,0.392998,-0.
 7770984,0.3887699,-0.3179226,0.3810005,-0.6276611,-1.7658898,-0.462004
 1,0.3453785,-0.476544,-0.8855121,0.4730742,0.4038748,0.487294,-0.71121
 43,-0.1428943,0.0556359,-0.0873284,0.0291017,-0.0825348,0.1273868,-0.0
 902717,0.0996364,-1.2288054,2.5123962,0.037631,-0.2459944,0.1019169,1.
 143029,0.8822744,-0.1686229,0.8912008,1.4929341,-1.8159654,0.282443,0.
 5480814,0.293338,-0.6436513,-0.4487295,0.5612444,-0.4472798,-0.9194326
 ,-1.8851744,-0.3905894,-0.2528725,-0.4368421,-0.6978491,-0.4054057,-0.
 3085767,-0.4118515,-0.763563,-0.1873387,0.0569513,-0.0347373,0.0596773
 ,-1.4609813,-0.137145,-0.0042203,-0.1267552,-0.1393211,-0.1860252,-0.0
 382372,-0.1106242,-0.0076755,-0.1425306,0.114318,-0.1009482,0.1086961,
 -1.4585866\Polar=195.7361201,-1.0705714,216.0809746,1.6637395,-1.23736
 32,215.525153\PG=C01 [X(Br2Cl2N2O4Pt1)]\NImag=0\\0.18150294,-0.0053480
 9,0.28316076,0.00766964,0.00018154,0.28286829,-0.01067646,0.00271141,-
 0.00047135,0.01305701,0.00259563,-0.07246987,-0.00461016,-0.00268722,0
 .08841287,0.00051641,-0.00533277,-0.01578082,0.00059073,0.00520291,0.0
 1417112,-0.06760570,-0.00161327,0.00261143,-0.00426854,-0.00155829,-0.
 00048695,0.57485994,-0.00284053,-0.05000336,-0.01805363,-0.00120952,-0
 .00091745,0.00139182,-0.02513516,0.58606847,0.00111365,-0.01822155,-0.
 05670131,-0.00227553,-0.00008289,-0.00006071,0.01359409,-0.36699410,0.
 45156741,-0.00233950,0.01763061,-0.01499785,0.00016780,-0.00174990,-0.
 00031765,-0.29325656,0.17682708,-0.14361133,0.25654302,0.00241102,0.00
 278677,0.01077285,-0.00458518,-0.00135220,-0.00075318,0.17286111,-0.25
 503289,0.17012592,-0.19563354,0.33399031,-0.00112891,0.01025443,0.0066
 5731,0.00075173,-0.00003869,-0.00051081,-0.14099368,0.17090902,-0.1877
 7677,0.15980718,-0.25877682,0.23374009,0.00199209,-0.01682185,0.013741
 93,0.00055792,-0.00017815,0.00008257,-0.21890658,-0.14966710,0.1274991
 8,0.05342895,0.02087702,-0.01785252,0.17861107,-0.00049409,0.00026911,
 0.01229833,-0.00026920,0.00033464,-0.00040915,-0.14627753,-0.29451378,
 0.20844144,0.00596850,-0.07974342,0.08093719,0.14275733,0.37523285,0.0
 0122042,0.01296864,0.00487092,0.00067151,-0.00021129,0.00013058,0.1241
 8710,0.20758103,-0.22281584,-0.00547034,0.08115071,-0.04975104,-0.1212
 4676,-0.29809751,0.27060490,-0.01101042,0.00040803,-0.00505005,0.00184
 030,0.00074633,-0.00056848,-0.00423620,-0.00252181,-0.00136990,0.00041
 549,0.00070171,-0.00011062,-0.00075220,0.00155322,-0.00434874,0.013460
 87,0.00131185,-0.01581339,0.00484263,0.00056094,-0.00182967,0.00662443
 ,-0.00054804,-0.00067926,0.00134176,0.00008887,0.00035752,-0.00045401,
 -0.00010212,-0.00019506,-0.00117114,-0.00011815,0.01486404,-0.00509202
 ,0.00567328,-0.07212911,-0.00012956,0.00427620,0.00014130,-0.00120503,
 0.00009267,-0.00033278,-0.00014988,-0.00032873,0.00025084,-0.00185977,
 -0.00029384,-0.00076464,0.00697711,-0.00809237,0.08734589,-0.06790776,
 0.00064299,0.00024731,-0.00463073,0.00146436,0.00012237,0.00671188,-0.
 00074138,0.00110423,0.00898079,-0.00221972,0.00156690,0.00742351,0.003
 09123,-0.00282797,-0.00391310,-0.00083265,0.00181777,0.56950079,0.0012
 4082,-0.05643758,0.01813081,0.00120203,-0.00032009,-0.00146691,-0.0007
 2945,0.02114403,0.00005536,-0.00384097,-0.00216395,-0.00162014,0.00437
 753,-0.00148278,-0.00239539,-0.00276152,-0.00052414,0.00063089,0.03533
 497,0.45431306,0.00095884,0.01821204,-0.04988860,-0.00208624,0.0000904
 6,-0.00036259,0.00110475,0.00005609,0.02109296,0.00257573,-0.00160942,
 -0.00294608,-0.00423092,-0.00245063,-0.00207142,0.00138059,-0.00122672
 ,-0.00087146,-0.01581657,0.36575786,0.58829869,0.00052024,0.01354943,0
 .01833823,0.00053877,0.00017643,-0.00004699,0.00808844,-0.00256510,-0.
 00477826,-0.01214305,0.00421131,-0.00196571,-0.01099115,-0.00431880,0.
 00508227,0.00049883,0.00001070,0.00011552,-0.23813179,0.11941000,0.169
 88059,0.19989725,0.00030701,0.00624271,-0.01099390,0.00021404,0.000214
 14,0.00044110,-0.00165621,-0.00286523,0.00188622,0.00400863,-0.0008000
 0,0.00066381,0.00217328,0.00170418,-0.00098789,0.00071647,0.00029803,0
 .00015466,0.11713415,-0.19495777,-0.19329850,-0.12058832,0.24221935,0.
 00241015,-0.01281888,-0.00040391,0.00070984,0.00021298,0.00033052,-0.0
 0369076,0.00201444,-0.00131729,0.00492641,-0.00171417,0.00165418,0.005
 76201,0.00225408,-0.00200779,0.00025523,0.00048400,0.00028608,0.167141
 25,-0.19360646,-0.30358280,-0.16990396,0.28414882,0.38494605,-0.000335
 87,-0.01522249,-0.01614860,-0.00067328,0.00145552,0.00002961,0.0082850
 6,0.00433945,0.00350066,-0.01239536,0.00298668,-0.00363713,-0.01121987
 ,-0.00573058,0.00366026,-0.00015776,-0.00017158,0.00141066,-0.26899353
 ,-0.15616734,-0.15733512,0.05371360,0.00408169,-0.00008052,0.23071949,
 -0.00236490,0.00515848,-0.01197104,0.00407957,-0.00070200,0.00066276,0
 .00283290,-0.00219918,0.00204421,-0.00352650,0.00171774,-0.00103541,-0
 .00472026,-0.00176417,0.00148247,0.00098241,0.00014434,-0.00018817,-0.
 15245322,-0.21845959,-0.18451950,-0.00821747,-0.05084056,-0.08097287,0
 .16445517,0.26637617,-0.00066797,-0.01019475,0.00320619,0.00182627,-0.
 00039872,0.00010636,0.00168677,0.00183485,-0.00224609,-0.00409616,0.00
 103937,-0.00062220,-0.00250085,-0.00135021,0.00168199,0.00415954,0.001
 39157,-0.00126576,-0.15287377,-0.18400780,-0.24785425,-0.01487642,-0.0
 8266789,-0.07996391,0.16877482,0.27366536,0.32593253,-0.01190552,0.003
 04838,0.00013819,0.00309251,0.00053905,0.00011846,-0.00476753,0.000439
 87,0.00381105,0.00048903,0.00035295,-0.00100097,-0.00081852,0.00477468
 ,-0.00112436,0.00083656,-0.00037148,-0.00081578,-0.00407377,-0.0015248
 3,0.00367167,-0.00074684,-0.00464906,-0.00237650,0.00048513,-0.0000956
 9,-0.00103344,0.01562375,0.00304092,-0.08557616,-0.00640107,0.00054826
 ,-0.00996736,-0.00098012,0.00164255,-0.00055206,-0.00016330,0.00007179
 ,0.00045648,-0.00031106,0.00141859,-0.00020017,0.00013897,0.00022369,0
 .00021677,-0.00302874,-0.00210218,-0.00042067,0.00095265,-0.00160640,-
 0.00159230,-0.00080020,-0.00004786,0.00019383,0.00004425,-0.00329255,0
 .09856105,-0.00073106,-0.00662652,-0.01736306,0.00004974,-0.00127270,0
 .00317494,0.00088583,0.00151213,-0.00072255,-0.00006903,-0.00050458,0.
 00036520,0.00054786,-0.00115657,-0.00015750,-0.00021473,-0.00512560,-0
 .00278351,0.00100893,-0.00161206,-0.00148737,-0.00027892,0.00111280,0.
 00071026,-0.00007458,0.00062773,0.00064800,-0.00069506,0.00596834,0.01
 654662,-0.01223406,0.00101483,-0.00607888,0.00099471,-0.00080376,-0.00
 004007,-0.00490423,0.00307420,0.00141214,0.00010939,-0.00196335,0.0045
 6373,0.00067477,-0.00105477,0.00019661,0.00301762,0.00017167,-0.001069
 02,-0.00496628,0.00345879,-0.00010332,-0.00124429,-0.00174169,-0.00515
 315,0.00057239,-0.00097201,-0.00039878,0.00178519,0.00010320,-0.000428
 97,0.01619480,0.00014037,-0.01731749,0.00580362,-0.00056512,-0.0014030
 1,-0.00538089,0.00018141,-0.00044931,0.00156693,0.00015543,-0.00021635
 ,-0.00052832,-0.00011427,0.00035860,-0.00045859,0.00006962,0.00316082,
 0.00110415,0.00068145,-0.00069051,-0.00196432,-0.00006178,0.00037745,0
 .00079826,0.00002134,0.00037493,0.00064397,0.00077868,-0.00111941,0.00
 707704,-0.00128712,0.01692427,-0.00626915,0.00590455,-0.08533591,0.000
 36287,-0.00316812,-0.00133988,0.00230644,-0.00034432,-0.00068704,0.001
 40293,0.00059807,-0.00106071,0.00005727,-0.00017313,0.00027985,-0.0011
 0994,0.00138544,-0.00987684,-0.00149044,0.00013384,-0.00032709,-0.0015
 6637,-0.00045923,-0.00065137,-0.00010006,0.00020448,0.00037713,-0.0006
 9325,0.00458028,0.00106898,0.00709971,-0.00866186,0.09755287\\-0.00002
 760,-0.00001021,-0.00000860,0.00001715,0.00001238,-0.00000289,0.000001
 23,-0.00001004,0.00005327,0.00000303,0.00001892,0.00000837,0.00000185,
 0.00003324,-0.00000339,0.00002409,0.00000425,0.00000390,0.00001766,-0.
 00000174,-0.00002576,-0.00000208,-0.00002091,-0.00002602,0.00000262,-0
 .00001709,-0.00001117,-0.00002686,-0.00000528,0.00000002,-0.00001109,-
 0.00000352,0.00001228\\\@


 "WHERE SHALL I START, PLEASE YOUR MAJESTY?" HE ASKED.
 "BEGIN AT THE BEGINNING," THE KING SAID GRAVELY,
 "AND GO ON TILL YOU COME TO THE END: THEN STOP." 

                                      -- LEWIS CARROLL
 Job cpu time:       0 days  0 hours 18 minutes 37.2 seconds.
 File lengths (MBytes):  RWF=    134 Int=      0 D2E=      0 Chk=      8 Scr=      1
 Normal termination of Gaussian 09 at Wed Aug 18 07:17:26 2021.
