 Entering Gaussian System, Link 0=g09
 Input=estrutura40_D2O.com
 Output=estrutura40_D2O.log
 Initial command:
 /home/scr/programs/g09/l1.exe "/home/scr/diego/Gau-8115.inp" -scrdir="/home/scr/diego/"
 Entering Link 1 = /home/scr/programs/g09/l1.exe PID=      8117.
  
 Copyright (c) 1988,1990,1992,1993,1995,1998,2003,2009,2013,
            Gaussian, Inc.  All Rights Reserved.
  
 This is part of the Gaussian(R) 09 program.  It is based on
 the Gaussian(R) 03 system (copyright 2003, Gaussian, Inc.),
 the Gaussian(R) 98 system (copyright 1998, Gaussian, Inc.),
 the Gaussian(R) 94 system (copyright 1995, Gaussian, Inc.),
 the Gaussian 92(TM) system (copyright 1992, Gaussian, Inc.),
 the Gaussian 90(TM) system (copyright 1990, Gaussian, Inc.),
 the Gaussian 88(TM) system (copyright 1988, Gaussian, Inc.),
 the Gaussian 86(TM) system (copyright 1986, Carnegie Mellon
 University), and the Gaussian 82(TM) system (copyright 1983,
 Carnegie Mellon University). Gaussian is a federally registered
 trademark of Gaussian, Inc.
  
 This software contains proprietary and confidential information,
 including trade secrets, belonging to Gaussian, Inc.
  
 This software is provided under written license and may be
 used, copied, transmitted, or stored only in accord with that
 written license.
  
 The following legend is applicable only to US Government
 contracts under FAR:
  
                    RESTRICTED RIGHTS LEGEND
  
 Use, reproduction and disclosure by the US Government is
 subject to restrictions as set forth in subparagraphs (a)
 and (c) of the Commercial Computer Software - Restricted
 Rights clause in FAR 52.227-19.
  
 Gaussian, Inc.
 340 Quinnipiac St., Bldg. 40, Wallingford CT 06492
  
  
 ---------------------------------------------------------------
 Warning -- This program may not be used in any manner that
 competes with the business of Gaussian, Inc. or will provide
 assistance to any competitor of Gaussian, Inc.  The licensee
 of this program is prohibited from giving any competitor of
 Gaussian, Inc. access to this program.  By using this program,
 the user acknowledges that Gaussian, Inc. is engaged in the
 business of creating and licensing software in the field of
 computational chemistry and represents and warrants to the
 licensee that it is not a competitor of Gaussian, Inc. and that
 it will not use this program in any manner prohibited above.
 ---------------------------------------------------------------
  

 Cite this work as:
 Gaussian 09, Revision D.01,
 M. J. Frisch, G. W. Trucks, H. B. Schlegel, G. E. Scuseria, 
 M. A. Robb, J. R. Cheeseman, G. Scalmani, V. Barone, B. Mennucci, 
 G. A. Petersson, H. Nakatsuji, M. Caricato, X. Li, H. P. Hratchian, 
 A. F. Izmaylov, J. Bloino, G. Zheng, J. L. Sonnenberg, M. Hada, 
 M. Ehara, K. Toyota, R. Fukuda, J. Hasegawa, M. Ishida, T. Nakajima, 
 Y. Honda, O. Kitao, H. Nakai, T. Vreven, J. A. Montgomery, Jr., 
 J. E. Peralta, F. Ogliaro, M. Bearpark, J. J. Heyd, E. Brothers, 
 K. N. Kudin, V. N. Staroverov, T. Keith, R. Kobayashi, J. Normand, 
 K. Raghavachari, A. Rendell, J. C. Burant, S. S. Iyengar, J. Tomasi, 
 M. Cossi, N. Rega, J. M. Millam, M. Klene, J. E. Knox, J. B. Cross, 
 V. Bakken, C. Adamo, J. Jaramillo, R. Gomperts, R. E. Stratmann, 
 O. Yazyev, A. J. Austin, R. Cammi, C. Pomelli, J. W. Ochterski, 
 R. L. Martin, K. Morokuma, V. G. Zakrzewski, G. A. Voth, 
 P. Salvador, J. J. Dannenberg, S. Dapprich, A. D. Daniels, 
 O. Farkas, J. B. Foresman, J. V. Ortiz, J. Cioslowski, 
 and D. J. Fox, Gaussian, Inc., Wallingford CT, 2013.
 
 ******************************************
 Gaussian 09:  EM64L-G09RevD.01 24-Apr-2013
                18-Aug-2021 
 ******************************************
 %mem=15gb
 %nproc=8
 Will use up to    8 processors via shared memory.
 ------------------------------------------------------------
 #b3lyp/gen pseudo=read opt freq=noraman scrf=(solvent=water)
 ------------------------------------------------------------
 1/14=-1,18=20,19=15,26=3,38=1/1,3;
 2/9=110,12=2,17=6,18=5,40=1/2;
 3/5=7,11=2,16=1,17=8,25=1,30=1,70=2201,71=1,72=1,74=-5/1,2,3;
 4//1;
 5/5=2,38=5,53=1/2;
 6/7=2,8=2,9=2,10=2,28=1/1;
 7//1,2,3,16;
 1/14=-1,18=20,19=15,26=3/3(2);
 2/9=110/2;
 99//99;
 2/9=110/2;
 3/5=7,6=1,11=2,16=1,17=8,25=1,30=1,70=2205,71=1,72=1,74=-5,82=7/1,2,3;
 4/5=5,16=3,69=1/1;
 5/5=2,38=5,53=1/2;
 7//1,2,3,16;
 1/14=-1,18=20,19=15,26=3/3(-5);
 2/9=110/2;
 6/7=2,8=2,9=2,10=2,19=2,28=1/1;
 99/9=1/99;
 ------------
 Estrutura 40
 ------------
 Symbolic Z-matrix:
 Charge = -2 Multiplicity = 1
 Pt                   -0.31955   0.33835   0. 
 Br                   -0.31955   2.76835   0. 
 N                    -2.30955   0.33835   0. 
 O                    -2.76288   1.58503   0.2998 
 O                    -2.76288  -0.54463   0.92976 
 N                     1.67045   0.33835   0. 
 O                     2.12378   0.84706  -1.17699 
 O                     2.12378   1.10329   1.02905 
 Cl                   -0.31955   0.33835  -2.28 
 Cl                   -0.31955   0.33835   2.28 
 Br                   -0.31955  -2.09165   0. 
 

 GradGradGradGradGradGradGradGradGradGradGradGradGradGradGradGradGradGrad
 Berny optimization.
 Initialization pass.
                           ----------------------------
                           !    Initial Parameters    !
                           ! (Angstroms and Degrees)  !
 --------------------------                            --------------------------
 ! Name  Definition              Value          Derivative Info.                !
 --------------------------------------------------------------------------------
 ! R1    R(1,2)                  2.43           estimate D2E/DX2                !
 ! R2    R(1,3)                  1.99           estimate D2E/DX2                !
 ! R3    R(1,6)                  1.99           estimate D2E/DX2                !
 ! R4    R(1,9)                  2.28           estimate D2E/DX2                !
 ! R5    R(1,10)                 2.28           estimate D2E/DX2                !
 ! R6    R(1,11)                 2.43           estimate D2E/DX2                !
 ! R7    R(3,4)                  1.36           estimate D2E/DX2                !
 ! R8    R(3,5)                  1.36           estimate D2E/DX2                !
 ! R9    R(6,7)                  1.36           estimate D2E/DX2                !
 ! R10   R(6,8)                  1.36           estimate D2E/DX2                !
 ! A1    A(2,1,3)               90.0            estimate D2E/DX2                !
 ! A2    A(2,1,6)               90.0            estimate D2E/DX2                !
 ! A3    A(2,1,9)               90.0            estimate D2E/DX2                !
 ! A4    A(2,1,10)              90.0            estimate D2E/DX2                !
 ! A5    A(3,1,9)               90.0            estimate D2E/DX2                !
 ! A6    A(3,1,10)              90.0            estimate D2E/DX2                !
 ! A7    A(3,1,11)              90.0            estimate D2E/DX2                !
 ! A8    A(6,1,9)               90.0            estimate D2E/DX2                !
 ! A9    A(6,1,10)              90.0            estimate D2E/DX2                !
 ! A10   A(6,1,11)              90.0            estimate D2E/DX2                !
 ! A11   A(9,1,11)              90.0            estimate D2E/DX2                !
 ! A12   A(10,1,11)             90.0            estimate D2E/DX2                !
 ! A13   A(1,3,4)              109.4712         estimate D2E/DX2                !
 ! A14   A(1,3,5)              109.4712         estimate D2E/DX2                !
 ! A15   A(4,3,5)              109.4713         estimate D2E/DX2                !
 ! A16   A(1,6,7)              109.4712         estimate D2E/DX2                !
 ! A17   A(1,6,8)              109.4712         estimate D2E/DX2                !
 ! A18   A(7,6,8)              109.4713         estimate D2E/DX2                !
 ! A19   L(2,1,11,3,-1)        180.0            estimate D2E/DX2                !
 ! A20   L(3,1,6,2,-1)         180.0            estimate D2E/DX2                !
 ! A21   L(9,1,10,2,-1)        180.0            estimate D2E/DX2                !
 ! A22   L(2,1,11,3,-2)        180.0            estimate D2E/DX2                !
 ! A23   L(3,1,6,2,-2)         180.0            estimate D2E/DX2                !
 ! A24   L(9,1,10,2,-2)        180.0            estimate D2E/DX2                !
 ! D1    D(2,1,3,4)            -13.5217         estimate D2E/DX2                !
 ! D2    D(2,1,3,5)           -133.5217         estimate D2E/DX2                !
 ! D3    D(9,1,3,4)           -103.5217         estimate D2E/DX2                !
 ! D4    D(9,1,3,5)            136.4783         estimate D2E/DX2                !
 ! D5    D(10,1,3,4)            76.4783         estimate D2E/DX2                !
 ! D6    D(10,1,3,5)           -43.5217         estimate D2E/DX2                !
 ! D7    D(11,1,3,4)           166.4783         estimate D2E/DX2                !
 ! D8    D(11,1,3,5)            46.4783         estimate D2E/DX2                !
 ! D9    D(4,3,6,7)            -80.1468         estimate D2E/DX2                !
 ! D10   D(4,3,6,8)             39.8532         estimate D2E/DX2                !
 ! D11   D(5,3,6,7)            159.8532         estimate D2E/DX2                !
 ! D12   D(5,3,6,8)            -80.1468         estimate D2E/DX2                !
 ! D13   D(2,1,6,7)            -66.6251         estimate D2E/DX2                !
 ! D14   D(2,1,6,8)             53.3749         estimate D2E/DX2                !
 ! D15   D(9,1,6,7)             23.3749         estimate D2E/DX2                !
 ! D16   D(9,1,6,8)            143.3749         estimate D2E/DX2                !
 ! D17   D(10,1,6,7)          -156.6251         estimate D2E/DX2                !
 ! D18   D(10,1,6,8)           -36.6251         estimate D2E/DX2                !
 ! D19   D(11,1,6,7)           113.3749         estimate D2E/DX2                !
 ! D20   D(11,1,6,8)          -126.6251         estimate D2E/DX2                !
 --------------------------------------------------------------------------------
 Trust Radius=3.00D-01 FncErr=1.00D-07 GrdErr=1.00D-06
 Number of steps in this run=     64 maximum allowed number of steps=    100.
 GradGradGradGradGradGradGradGradGradGradGradGradGradGradGradGradGradGrad

                          Input orientation:                          
 ---------------------------------------------------------------------
 Center     Atomic      Atomic             Coordinates (Angstroms)
 Number     Number       Type             X           Y           Z
 ---------------------------------------------------------------------
      1         78           0       -0.319549    0.338346    0.000000
      2         35           0       -0.319549    2.768346    0.000000
      3          7           0       -2.309549    0.338346    0.000000
      4          8           0       -2.762882    1.585025    0.299800
      5          8           0       -2.762882   -0.544629    0.929755
      6          7           0        1.670451    0.338346    0.000000
      7          8           0        2.123784    0.847061   -1.176987
      8          8           0        2.123784    1.103288    1.029054
      9         17           0       -0.319549    0.338346   -2.280000
     10         17           0       -0.319549    0.338346    2.280000
     11         35           0       -0.319549   -2.091654    0.000000
 ---------------------------------------------------------------------
                    Distance matrix (angstroms):
                    1          2          3          4          5
     1  Pt   0.000000
     2  Br   2.430000   0.000000
     3  N    1.990000   3.140860   0.000000
     4  O    2.759341   2.731301   1.360000   0.000000
     5  O    2.759341   4.220204   1.360000   2.220871   0.000000
     6  N    1.990000   3.140860   3.980000   4.615033   4.615033
     7  O    2.759341   3.323629   4.615033   5.158003   5.500424
     8  O    2.759341   3.130694   4.615033   4.964210   5.158003
     9  Cl   2.280000   3.332161   3.026301   3.765562   4.129413
    10  Cl   2.280000   3.332161   3.026301   3.383087   2.927914
    11  Br   2.430000   4.860000   3.140860   4.424672   3.037698
                    6          7          8          9         10
     6  N    0.000000
     7  O    1.360000   0.000000
     8  O    1.360000   2.220871   0.000000
     9  Cl   3.026301   2.728609   4.183880   0.000000
    10  Cl   3.026301   4.263734   2.849540   4.560000   0.000000
    11  Br   3.140860   3.998903   4.151685   3.332161   3.332161
                   11
    11  Br   0.000000
 Stoichiometry    Br2Cl2N2O4Pt(2-)
 Framework group  C1[X(Br2Cl2N2O4Pt)]
 Deg. of freedom    27
 Full point group                 C1      NOp   1
 Largest Abelian subgroup         C1      NOp   1
 Largest concise Abelian subgroup C1      NOp   1
                         Standard orientation:                         
 ---------------------------------------------------------------------
 Center     Atomic      Atomic             Coordinates (Angstroms)
 Number     Number       Type             X           Y           Z
 ---------------------------------------------------------------------
      1         78           0       -0.056360   -0.022093   -0.032809
      2         35           0        2.362172    0.207427   -0.086852
      3          7           0       -0.244613    1.755840   -0.906660
      4          8           0        0.946820    2.410273   -0.864188
      5          8           0       -1.186395    2.485768   -0.251028
      6          7           0        0.131893   -1.800026    0.841042
      7          8           0        0.706523   -2.673876   -0.028317
      8          8           0        0.913877   -1.680886    1.947346
      9         17           0       -0.007098   -1.023361   -2.080596
     10         17           0       -0.105622    0.979175    2.014979
     11         35           0       -2.474893   -0.251613    0.021235
 ---------------------------------------------------------------------
 Rotational constants (GHZ):      0.5569007      0.3679976      0.3363352
 General basis read from cards:  (5D, 7F)
 ======================================================================================================
                                       Pseudopotential Parameters
 ======================================================================================================
  Center     Atomic      Valence      Angular      Power
  Number     Number     Electrons     Momentum     of R      Exponent        Coefficient   SO-Coeffient
 ======================================================================================================
    1         78           18
                                      G and up 
                                                     1      728.9394056       -0.16192680    0.00000000
                                                     2      320.6567800    -1320.28738520    0.00000000
                                                     2       52.8680174     -298.31781350    0.00000000
                                                     2       12.0280128      -87.58370650    0.00000000
                                                     2        3.5238913       -8.14932740    0.00000000
                                      S - G
                                                     0      409.4437358        2.73342180    0.00000000
                                                     1      274.5419231       59.70243290    0.00000000
                                                     2      127.5658570      891.45895500    0.00000000
                                                     2       32.9036631      368.44676560    0.00000000
                                                     2        5.0593880      238.02630900    0.00000000
                                                     2        4.1506556     -107.05564540    0.00000000
                                      P - G
                                                     0      466.1728892        1.88785680    0.00000000
                                                     1      120.7888259       76.01386290    0.00000000
                                                     2       36.4118791      343.55111160    0.00000000
                                                     2        5.6985408      119.49117860    0.00000000
                                      D - G
                                                     0      249.5650763        2.93436780    0.00000000
                                                     1      126.6678585       59.33065710    0.00000000
                                                     2       63.1430586      452.44451940    0.00000000
                                                     2       17.9059470      210.47694790    0.00000000
                                                     2        4.2239373       58.62541120    0.00000000
                                      F - G
                                                     0      121.8158799        3.95342530    0.00000000
                                                     1       60.8757030       53.85551820    0.00000000
                                                     2       31.4767147      247.43051330    0.00000000
                                                     2        9.8811751      127.81879760    0.00000000
                                                     2        2.7319874       15.37720460    0.00000000
    2         35
                                   No pseudopotential on this center.
    3          7
                                   No pseudopotential on this center.
    4          8
                                   No pseudopotential on this center.
    5          8
                                   No pseudopotential on this center.
    6          7
                                   No pseudopotential on this center.
    7          8
                                   No pseudopotential on this center.
    8          8
                                   No pseudopotential on this center.
    9         17
                                   No pseudopotential on this center.
   10         17
                                   No pseudopotential on this center.
   11         35
                                   No pseudopotential on this center.
 ======================================================================================================
 There are   222 symmetry adapted cartesian basis functions of A   symmetry.
 There are   206 symmetry adapted basis functions of A   symmetry.
   206 basis functions,   427 primitive gaussians,   222 cartesian basis functions
    85 alpha electrons       85 beta electrons
       nuclear repulsion energy      2067.4833404026 Hartrees.
 NAtoms=   11 NActive=   11 NUniq=   11 SFac= 1.00D+00 NAtFMM=   60 NAOKFM=F Big=F
 Integral buffers will be    131072 words long.
 Raffenetti 2 integral format.
 Two-electron integral symmetry is turned on.
 ------------------------------------------------------------------------------
 Polarizable Continuum Model (PCM)
 =================================
 Model                : PCM (using non-symmetric T matrix).
 Atomic radii         : UFF (Universal Force Field).
 Polarization charges : Total charges.
 Charge compensation  : None.
 Solution method      : On-the-fly selection.
 Cavity type          : Scaled VdW (van der Waals Surface) (Alpha=1.100).
 Cavity algorithm     : GePol (No added spheres)
                        Default sphere list used, NSphG=   11.
                        Lebedev-Laikov grids with approx.  5.0 points / Ang**2.
                        Smoothing algorithm: Karplus/York (Gamma=1.0000).
                        Polarization charges: spherical gaussians, with
                                              point-specific exponents (IZeta= 3).
                        Self-potential: point-specific (ISelfS= 7).
                        Self-field    : sphere-specific E.n sum rule (ISelfD= 2).
 1st derivatives      : Analytical E(r).r(x)/FMM algorithm (CHGder, D1EAlg=3).
                        Cavity 1st derivative terms included.
 Solvent              : Water, Eps=  78.355300 Eps(inf)=   1.777849
 ------------------------------------------------------------------------------
 Spheres list:
 ISph  on   Nord     Re0    Alpha      Xe            Ye            Ze
    1  Pt      1    1.3770  1.100     -0.056360     -0.022093     -0.032809
    2  Br      2    2.0945  1.100      2.362172      0.207427     -0.086852
    3   N      3    1.8300  1.100     -0.244613      1.755840     -0.906660
    4   O      4    1.7500  1.100      0.946820      2.410273     -0.864188
    5   O      5    1.7500  1.100     -1.186395      2.485768     -0.251028
    6   N      6    1.8300  1.100      0.131893     -1.800026      0.841042
    7   O      7    1.7500  1.100      0.706523     -2.673876     -0.028317
    8   O      8    1.7500  1.100      0.913877     -1.680886      1.947346
    9  Cl      9    1.9735  1.100     -0.007098     -1.023361     -2.080596
   10  Cl     10    1.9735  1.100     -0.105622      0.979175      2.014979
   11  Br     11    2.0945  1.100     -2.474893     -0.251613      0.021235
 ------------------------------------------------------------------------------
 One-electron integrals computed using PRISM.
   1 Symmetry operations used in ECPInt.
 ECPInt:  NShTT=    3570 NPrTT=   17235 LenC2=    3316 LenP2D=   11161.
 LDataN:  DoStor=T MaxTD1= 6 Len=  172
 NBasis=   206 RedAO= T EigKep=  4.37D-03  NBF=   206
 NBsUse=   206 1.00D-06 EigRej= -1.00D+00 NBFU=   206
 Defaulting to unpruned grid for atomic number  78.
 ExpMin= 2.90D-02 ExpMax= 1.13D+05 ExpMxC= 1.70D+04 IAcc=3 IRadAn=         5 AccDes= 0.00D+00
 Harris functional with IExCor=  402 and IRadAn=       5 diagonalized for initial guess.
 HarFok:  IExCor=  402 AccDes= 0.00D+00 IRadAn=         5 IDoV= 1 UseB2=F ITyADJ=14
 ICtDFT=  3500011 ScaDFX=  1.000000  1.000000  1.000000  1.000000
 Defaulting to unpruned grid for atomic number  78.
 Defaulting to unpruned grid for atomic number  78.
 Defaulting to unpruned grid for atomic number  78.
 Defaulting to unpruned grid for atomic number  78.
 Defaulting to unpruned grid for atomic number  78.
 Defaulting to unpruned grid for atomic number  78.
 Defaulting to unpruned grid for atomic number  78.
 Defaulting to unpruned grid for atomic number  78.
 FoFCou: FMM=F IPFlag=           0 FMFlag=      100000 FMFlg1=           0
         NFxFlg=           0 DoJE=T BraDBF=F KetDBF=T FulRan=T
         wScrn=  0.000000 ICntrl=     500 IOpCl=  0 I1Cent=   200000004 NGrid=           0
         NMat0=    1 NMatS0=      1 NMatT0=    0 NMatD0=    1 NMtDS0=    0 NMtDT0=    0
 Petite list used in FoFCou.
 Keep R1 ints in memory in canonical form, NReq=233291835.
 Requested convergence on RMS density matrix=1.00D-08 within 128 cycles.
 Requested convergence on MAX density matrix=1.00D-06.
 Requested convergence on             energy=1.00D-06.
 No special actions if energy rises.
 Defaulting to unpruned grid for atomic number  78.
 Defaulting to unpruned grid for atomic number  78.
 Defaulting to unpruned grid for atomic number  78.
 Defaulting to unpruned grid for atomic number  78.
 Defaulting to unpruned grid for atomic number  78.
 Defaulting to unpruned grid for atomic number  78.
 Defaulting to unpruned grid for atomic number  78.
 Defaulting to unpruned grid for atomic number  78.
 Inv3:  Mode=1 IEnd=     7133292.
 Iteration    1 A*A^-1 deviation from unit magnitude is 5.77D-15 for    373.
 Iteration    1 A*A^-1 deviation from orthogonality  is 4.57D-15 for   1277    261.
 Iteration    1 A^-1*A deviation from unit magnitude is 7.77D-15 for    805.
 Iteration    1 A^-1*A deviation from orthogonality  is 1.72D-15 for    593     83.
 EnCoef did     2 forward-backward iterations
 EnCoef did     2 forward-backward iterations
 EnCoef did     7 forward-backward iterations
 EnCoef did     3 forward-backward iterations
 EnCoef did     3 forward-backward iterations
 Error on total polarization charges =  0.01394
 SCF Done:  E(RB3LYP) =  -6597.20526504     A.U. after   23 cycles
            NFock= 23  Conv=0.38D-08     -V/T= 2.0142

 **********************************************************************

            Population analysis using the SCF density.

 **********************************************************************

 Orbital symmetries:
       Occupied  (A) (A) (A) (A) (A) (A) (A) (A) (A) (A) (A) (A)
                 (A) (A) (A) (A) (A) (A) (A) (A) (A) (A) (A) (A)
                 (A) (A) (A) (A) (A) (A) (A) (A) (A) (A) (A) (A)
                 (A) (A) (A) (A) (A) (A) (A) (A) (A) (A) (A) (A)
                 (A) (A) (A) (A) (A) (A) (A) (A) (A) (A) (A) (A)
                 (A) (A) (A) (A) (A) (A) (A) (A) (A) (A) (A) (A)
                 (A) (A) (A) (A) (A) (A) (A) (A) (A) (A) (A) (A)
                 (A)
       Virtual   (A) (A) (A) (A) (A) (A) (A) (A) (A) (A) (A) (A)
                 (A) (A) (A) (A) (A) (A) (A) (A) (A) (A) (A) (A)
                 (A) (A) (A) (A) (A) (A) (A) (A) (A) (A) (A) (A)
                 (A) (A) (A) (A) (A) (A) (A) (A) (A) (A) (A) (A)
                 (A) (A) (A) (A) (A) (A) (A) (A) (A) (A) (A) (A)
                 (A) (A) (A) (A) (A) (A) (A) (A) (A) (A) (A) (A)
                 (A) (A) (A) (A) (A) (A) (A) (A) (A) (A) (A) (A)
                 (A) (A) (A) (A) (A) (A) (A) (A) (A) (A) (A) (A)
                 (A) (A) (A) (A) (A) (A) (A) (A) (A) (A) (A) (A)
                 (A) (A) (A) (A) (A) (A) (A) (A) (A) (A) (A) (A)
                 (A)
 The electronic state is 1-A.
 Alpha  occ. eigenvalues -- -482.74764-482.74352-101.44862-101.44839 -62.42932
 Alpha  occ. eigenvalues --  -62.42514 -56.26127 -56.25830 -56.25820 -56.25706
 Alpha  occ. eigenvalues --  -56.25411 -56.25407 -19.14488 -19.14335 -19.14182
 Alpha  occ. eigenvalues --  -19.14096 -14.49366 -14.49355  -9.40231  -9.40221
 Alpha  occ. eigenvalues --   -8.64707  -8.64290  -7.17047  -7.17029  -7.16203
 Alpha  occ. eigenvalues --   -7.16178  -7.16170  -7.16145  -6.47924  -6.47495
 Alpha  occ. eigenvalues --   -6.46842  -6.46808  -6.46419  -6.46406  -4.02969
 Alpha  occ. eigenvalues --   -2.59373  -2.59075  -2.59049  -2.58948  -2.58646
 Alpha  occ. eigenvalues --   -2.58636  -2.58198  -2.58198  -2.57790  -2.57789
 Alpha  occ. eigenvalues --   -2.24883  -2.24142  -2.23813  -1.09191  -1.08736
 Alpha  occ. eigenvalues --   -0.93046  -0.92886  -0.77478  -0.75329  -0.73073
 Alpha  occ. eigenvalues --   -0.71906  -0.67063  -0.63191  -0.50881  -0.47160
 Alpha  occ. eigenvalues --   -0.47031  -0.46463  -0.45338  -0.45147  -0.42702
 Alpha  occ. eigenvalues --   -0.41052  -0.40875  -0.37420  -0.36465  -0.32062
 Alpha  occ. eigenvalues --   -0.31792  -0.29751  -0.27548  -0.27270  -0.27091
 Alpha  occ. eigenvalues --   -0.26793  -0.26629  -0.25969  -0.25589  -0.25501
 Alpha  occ. eigenvalues --   -0.25011  -0.24295  -0.23496  -0.22822  -0.22003
 Alpha virt. eigenvalues --   -0.14305  -0.09484  -0.09214  -0.02977   0.05341
 Alpha virt. eigenvalues --    0.05731   0.06729   0.15899   0.18763   0.18847
 Alpha virt. eigenvalues --    0.20107   0.20761   0.26490   0.28287   0.28872
 Alpha virt. eigenvalues --    0.35421   0.36802   0.38639   0.42103   0.45482
 Alpha virt. eigenvalues --    0.50077   0.51022   0.54734   0.56030   0.56430
 Alpha virt. eigenvalues --    0.58479   0.59732   0.60813   0.60987   0.61637
 Alpha virt. eigenvalues --    0.62092   0.64893   0.68107   0.69532   0.71105
 Alpha virt. eigenvalues --    0.71817   0.72396   0.73711   0.74713   0.75775
 Alpha virt. eigenvalues --    0.76971   0.77177   0.79130   0.81127   0.83899
 Alpha virt. eigenvalues --    0.86231   0.87205   0.89125   0.91747   0.91845
 Alpha virt. eigenvalues --    0.93727   0.93923   0.95838   0.96434   0.98820
 Alpha virt. eigenvalues --    1.00209   1.00887   1.01442   1.03363   1.04411
 Alpha virt. eigenvalues --    1.05027   1.07445   1.08433   1.10138   1.12046
 Alpha virt. eigenvalues --    1.15444   1.16750   1.18874   1.21329   1.22780
 Alpha virt. eigenvalues --    1.24775   1.26859   1.27682   1.34039   1.36113
 Alpha virt. eigenvalues --    1.38616   1.43147   1.46374   1.48664   1.55344
 Alpha virt. eigenvalues --    1.93019   1.94300   1.97212   2.00335   2.01571
 Alpha virt. eigenvalues --    2.08430   2.30805   2.31358   2.33524   2.33884
 Alpha virt. eigenvalues --    2.65240   2.65779   2.66638   2.66896   2.67161
 Alpha virt. eigenvalues --    2.67446   2.68609   2.69045   2.75535   2.76371
 Alpha virt. eigenvalues --    2.97506   2.98589   3.01341   3.01679   3.22253
 Alpha virt. eigenvalues --    3.22624   3.44564   3.45994   3.47330   3.49247
 Alpha virt. eigenvalues --    3.50345   3.52524   3.58183   3.60471   3.61675
 Alpha virt. eigenvalues --    3.64064   3.64746   3.69473   3.70943   3.82443
 Alpha virt. eigenvalues --    8.73390
          Condensed to atoms (all electrons):
               1          2          3          4          5          6
     1  Pt  17.368368   0.208499   0.041497  -0.011318  -0.017102   0.032933
     2  Br   0.208499  35.036830  -0.019542  -0.033126   0.000514  -0.021552
     3  N    0.041497  -0.019542   6.642621   0.176994   0.190500  -0.004745
     4  O   -0.011318  -0.033126   0.176994   8.234548  -0.095478   0.000087
     5  O   -0.017102   0.000514   0.190500  -0.095478   8.197405   0.000087
     6  N    0.032933  -0.021552  -0.004745   0.000087   0.000087   6.653815
     7  O   -0.002854   0.000604   0.000087   0.000001   0.000000   0.181413
     8  O   -0.011689  -0.000448   0.000089   0.000000   0.000000   0.181277
     9  Cl   0.240777  -0.025120  -0.011428  -0.000264   0.000143  -0.006328
    10  Cl   0.237678  -0.024098  -0.014840   0.000575  -0.001317  -0.012912
    11  Br   0.194077  -0.004497  -0.014610   0.000461  -0.007847  -0.012414
               7          8          9         10         11
     1  Pt  -0.002854  -0.011689   0.240777   0.237678   0.194077
     2  Br   0.000604  -0.000448  -0.025120  -0.024098  -0.004497
     3  N    0.000087   0.000089  -0.011428  -0.014840  -0.014610
     4  O    0.000001   0.000000  -0.000264   0.000575   0.000461
     5  O    0.000000   0.000000   0.000143  -0.001317  -0.007847
     6  N    0.181413   0.181277  -0.006328  -0.012912  -0.012414
     7  O    8.213932  -0.095926  -0.024434   0.000158  -0.000125
     8  O   -0.095926   8.205904   0.000140  -0.012124   0.000121
     9  Cl  -0.024434   0.000140  17.060728  -0.001878  -0.027741
    10  Cl   0.000158  -0.012124  -0.001878  17.052203  -0.026211
    11  Br  -0.000125   0.000121  -0.027741  -0.026211  35.040152
 Mulliken charges:
               1
     1  Pt  -0.280866
     2  Br  -0.118064
     3  N    0.013376
     4  O   -0.272480
     5  O   -0.266905
     6  N    0.008338
     7  O   -0.272857
     8  O   -0.267345
     9  Cl  -0.204596
    10  Cl  -0.197235
    11  Br  -0.141366
 Sum of Mulliken charges =  -2.00000
 Mulliken charges with hydrogens summed into heavy atoms:
               1
     1  Pt  -0.280866
     2  Br  -0.118064
     3  N    0.013376
     4  O   -0.272480
     5  O   -0.266905
     6  N    0.008338
     7  O   -0.272857
     8  O   -0.267345
     9  Cl  -0.204596
    10  Cl  -0.197235
    11  Br  -0.141366
 Electronic spatial extent (au):  <R**2>=           3501.9785
 Charge=             -2.0000 electrons
 Dipole moment (field-independent basis, Debye):
    X=             -1.5293    Y=             -0.3803    Z=             -0.9167  Tot=              1.8232
 Quadrupole moment (field-independent basis, Debye-Ang):
   XX=           -146.8115   YY=           -156.0167   ZZ=           -143.1126
   XY=              4.6828   XZ=             -1.0881   YZ=             -0.3092
 Traceless Quadrupole moment (field-independent basis, Debye-Ang):
   XX=              1.8354   YY=             -7.3698   ZZ=              5.5343
   XY=              4.6828   XZ=             -1.0881   YZ=             -0.3092
 Octapole moment (field-independent basis, Debye-Ang**2):
  XXX=             -2.0357  YYY=            -12.0184  ZZZ=            -13.0566  XYY=            -12.1951
  XXY=             -2.9258  XXZ=             -1.5634  XZZ=             -8.3133  YZZ=              8.3754
  YYZ=              1.1623  XYZ=              8.7336
 Hexadecapole moment (field-independent basis, Debye-Ang**3):
 XXXX=          -1660.8578 YYYY=          -1469.0133 ZZZZ=          -1075.8066 XXXY=             25.7315
 XXXZ=             -5.6078 YYYX=             57.5767 YYYZ=             10.8345 ZZZX=            -12.9393
 ZZZY=             -7.5411 XXYY=           -518.5245 XXZZ=           -452.4633 YYZZ=           -402.9291
 XXYZ=              5.2005 YYXZ=             -5.1652 ZZXY=             12.2217
 N-N= 2.067483340403D+03 E-N=-1.989309230915D+04  KE= 6.504917700563D+03
   1 Symmetry operations used in ECPInt.
 ECPInt:  NShTT=    3570 NPrTT=   17235 LenC2=    3316 LenP2D=   11161.
 LDataN:  DoStor=T MaxTD1= 7 Len=  274
 D1PCM: PCM CHGder 1st derivatives, ID1Alg=3 FixD1E=F DoIter=F DoCFld=F I1PDM=0.
 Calling FoFJK, ICntrl=      2127 FMM=F ISym2X=0 I1Cent= 0 IOpClX= 0 NMat=1 NMatS=1 NMatT=0.
 Defaulting to unpruned grid for atomic number  78.
 Defaulting to unpruned grid for atomic number  78.
 Defaulting to unpruned grid for atomic number  78.
 Defaulting to unpruned grid for atomic number  78.
 Defaulting to unpruned grid for atomic number  78.
 Defaulting to unpruned grid for atomic number  78.
 Defaulting to unpruned grid for atomic number  78.
 Defaulting to unpruned grid for atomic number  78.
 ***** Axes restored to original set *****
 -------------------------------------------------------------------
 Center     Atomic                   Forces (Hartrees/Bohr)
 Number     Number              X              Y              Z
 -------------------------------------------------------------------
      1       78          -0.000552332   -0.034270581   -0.022862854
      2       35           0.016260548    0.040897240   -0.002355302
      3        7          -0.099553237    0.056985458    0.169787066
      4        8           0.010272672   -0.090693442   -0.054330993
      5        8           0.021488277    0.040446518   -0.090930138
      6        7           0.099088512    0.178178337   -0.014548345
      7        8          -0.014531689   -0.068446588    0.077273238
      8        8          -0.018933558   -0.081601988   -0.058143127
      9       17          -0.012677707   -0.002324027   -0.045899850
     10       17          -0.006444972   -0.002070931    0.044806712
     11       35           0.005583486   -0.037099997   -0.002796406
 -------------------------------------------------------------------
 Cartesian Forces:  Max     0.178178337 RMS     0.064210650

 GradGradGradGradGradGradGradGradGradGradGradGradGradGradGradGradGradGrad
 Berny optimization.
 FormGI is forming the generalized inverse of G from B-inverse, IUseBI=4.
 Internal  Forces:  Max     0.098568564 RMS     0.035684947
 Search for a local minimum.
 Step number   1 out of a maximum of   64
 All quantities printed in internal units (Hartrees-Bohrs-Radians)
 Mixed Optimization -- RFO/linear search
 Second derivative matrix not updated -- first step.
 ITU=  0
     Eigenvalues ---    0.00230   0.00230   0.03408   0.03414   0.06422
     Eigenvalues ---    0.06422   0.12070   0.12330   0.12615   0.12615
     Eigenvalues ---    0.12615   0.19509   0.19509   0.20378   0.20378
     Eigenvalues ---    0.22001   0.22001   0.25000   0.25000   0.25000
     Eigenvalues ---    0.25000   0.25000   0.25000   0.52948   0.52948
     Eigenvalues ---    0.52948   0.52948
 RFO step:  Lambda=-1.55913618D-01 EMin= 2.30000000D-03
 Linear search not attempted -- first point.
 Maximum step size (   0.300) exceeded in Quadratic search.
    -- Step size scaled by   0.549
 Iteration  1 RMS(Cart)=  0.07783482 RMS(Int)=  0.00306114
 Iteration  2 RMS(Cart)=  0.00329395 RMS(Int)=  0.00136178
 Iteration  3 RMS(Cart)=  0.00001201 RMS(Int)=  0.00136175
 Iteration  4 RMS(Cart)=  0.00000005 RMS(Int)=  0.00136175
 Variable       Old X    -DE/DX   Delta X   Delta X   Delta X     New X
                                 (Linear)    (Quad)   (Total)
    R1        4.59203   0.04089   0.00000   0.06400   0.06400   4.65603
    R2        3.76056   0.06779   0.00000   0.10353   0.10353   3.86408
    R3        3.76056   0.06561   0.00000   0.10020   0.10020   3.86075
    R4        4.30858   0.04589   0.00000   0.06706   0.06706   4.37564
    R5        4.30858   0.04481   0.00000   0.06548   0.06548   4.37405
    R6        4.59203   0.03710   0.00000   0.05806   0.05806   4.65010
    R7        2.57003  -0.09857   0.00000  -0.07900  -0.07900   2.49103
    R8        2.57003  -0.09557   0.00000  -0.07659  -0.07659   2.49344
    R9        2.57003  -0.09732   0.00000  -0.07800  -0.07800   2.49203
   R10        2.57003  -0.09618   0.00000  -0.07708  -0.07708   2.49295
    A1        1.57080   0.02332   0.00000   0.03897   0.03884   1.60963
    A2        1.57080  -0.02611   0.00000  -0.04282  -0.04283   1.52797
    A3        1.57080  -0.00010   0.00000  -0.00036   0.00034   1.57114
    A4        1.57080   0.00247   0.00000   0.00627   0.00664   1.57743
    A5        1.57080  -0.00914   0.00000  -0.01421  -0.01428   1.55652
    A6        1.57080  -0.01145   0.00000  -0.02589  -0.02590   1.54490
    A7        1.57080   0.00176   0.00000   0.00987   0.01003   1.58083
    A8        1.57080   0.02485   0.00000   0.04402   0.04404   1.61483
    A9        1.57080  -0.00426   0.00000  -0.00392  -0.00383   1.56696
   A10        1.57080   0.00103   0.00000  -0.00602  -0.00581   1.56499
   A11        1.57080  -0.00285   0.00000  -0.00701  -0.00657   1.56422
   A12        1.57080   0.00048   0.00000   0.00109   0.00155   1.57235
   A13        1.91063   0.05517   0.00000   0.08724   0.08423   1.99486
   A14        1.91063   0.02178   0.00000   0.04207   0.03896   1.94960
   A15        1.91063  -0.01288   0.00000   0.00774   0.00267   1.91330
   A16        1.91063   0.04258   0.00000   0.06964   0.06682   1.97745
   A17        1.91063   0.02952   0.00000   0.05196   0.04909   1.95972
   A18        1.91063  -0.01246   0.00000   0.00717   0.00239   1.91302
   A19        3.14159   0.02508   0.00000   0.04885   0.04887   3.19046
   A20        3.14159  -0.00278   0.00000  -0.00385  -0.00400   3.13760
   A21        3.14159   0.00237   0.00000   0.00591   0.00698   3.14857
   A22        3.14159  -0.00295   0.00000  -0.00736  -0.00693   3.13466
   A23        3.14159  -0.01571   0.00000  -0.02981  -0.02978   3.11181
   A24        3.14159  -0.02059   0.00000  -0.04010  -0.03994   3.10165
    D1       -0.23600   0.01372   0.00000   0.03937   0.04072  -0.19528
    D2       -2.33039  -0.01763   0.00000  -0.04929  -0.04987  -2.38026
    D3       -1.80679   0.01382   0.00000   0.03973   0.04093  -1.76586
    D4        2.38200  -0.01753   0.00000  -0.04893  -0.04965   2.33234
    D5        1.33480   0.01619   0.00000   0.04564   0.04636   1.38115
    D6       -0.75960  -0.01515   0.00000  -0.04302  -0.04423  -0.80383
    D7        2.90559   0.01667   0.00000   0.04674   0.04765   2.95325
    D8        0.81120  -0.01467   0.00000  -0.04192  -0.04293   0.76827
    D9       -1.39883  -0.00090   0.00000  -0.00227  -0.00296  -1.40178
   D10        0.69557   0.02771   0.00000   0.08086   0.08110   0.77667
   D11        2.78996  -0.02739   0.00000  -0.08184  -0.08242   2.70755
   D12       -1.39883   0.00122   0.00000   0.00129   0.00164  -1.39718
   D13       -1.16283  -0.01358   0.00000  -0.03939  -0.03928  -1.20210
   D14        0.93157   0.01531   0.00000   0.04386   0.04528   0.97685
   D15        0.40797  -0.01368   0.00000  -0.03975  -0.04082   0.36715
   D16        2.50236   0.01521   0.00000   0.04350   0.04373   2.54610
   D17       -2.73362  -0.01606   0.00000  -0.04566  -0.04608  -2.77971
   D18       -0.63923   0.01284   0.00000   0.03759   0.03848  -0.60075
   D19        1.97877  -0.01654   0.00000  -0.04676  -0.04766   1.93111
   D20       -2.21002   0.01236   0.00000   0.03649   0.03690  -2.17313
         Item               Value     Threshold  Converged?
 Maximum Force            0.098569     0.000450     NO 
 RMS     Force            0.035685     0.000300     NO 
 Maximum Displacement     0.279319     0.001800     NO 
 RMS     Displacement     0.076725     0.001200     NO 
 Predicted change in Energy=-7.255077D-02
 GradGradGradGradGradGradGradGradGradGradGradGradGradGradGradGradGradGrad

                          Input orientation:                          
 ---------------------------------------------------------------------
 Center     Atomic      Atomic             Coordinates (Angstroms)
 Number     Number       Type             X           Y           Z
 ---------------------------------------------------------------------
      1         78           0       -0.322215    0.356891   -0.005936
      2         35           0       -0.243912    2.819478   -0.018865
      3          7           0       -2.366258    0.342734    0.047282
      4          8           0       -2.910691    1.518571    0.289447
      5          8           0       -2.825797   -0.544347    0.909206
      6          7           0        1.720668    0.379497    0.001641
      7          8           0        2.241678    0.815676   -1.128553
      8          8           0        2.209512    1.073555    1.011408
      9         17           0       -0.415461    0.346920   -2.319523
     10         17           0       -0.321895    0.353666    2.308711
     11         35           0       -0.280666   -2.103473   -0.013195
 ---------------------------------------------------------------------
                    Distance matrix (angstroms):
                    1          2          3          4          5
     1  Pt   0.000000
     2  Br   2.463865   0.000000
     3  N    2.044785   3.262359   0.000000
     4  O    2.852536   2.983140   1.318197   0.000000
     5  O    2.813831   4.340826   1.319470   2.155676   0.000000
     6  N    2.043021   3.132651   4.087346   4.778054   4.727315
     7  O    2.836247   3.380057   4.779052   5.389962   5.628626
     8  O    2.821035   3.182609   4.733002   5.189966   5.289839
     9  Cl   2.315487   3.381715   3.067148   3.795479   4.126594
    10  Cl   2.314649   3.391743   3.048541   3.483719   3.005756
    11  Br   2.460726   4.923091   3.215164   4.486404   3.124002
                    6          7          8          9         10
     6  N    0.000000
     7  O    1.318727   0.000000
     8  O    1.319210   2.155683   0.000000
     9  Cl   3.154665   2.949327   4.302742   0.000000
    10  Cl   3.081445   4.312788   2.934153   4.629185   0.000000
    11  Br   3.189153   4.015927   4.164650   3.367751   3.380900
                   11
    11  Br   0.000000
 Stoichiometry    Br2Cl2N2O4Pt(2-)
 Framework group  C1[X(Br2Cl2N2O4Pt)]
 Deg. of freedom    27
 Full point group                 C1      NOp   1
 Largest Abelian subgroup         C1      NOp   1
 Largest concise Abelian subgroup C1      NOp   1
                         Standard orientation:                         
 ---------------------------------------------------------------------
 Center     Atomic      Atomic             Coordinates (Angstroms)
 Number     Number       Type             X           Y           Z
 ---------------------------------------------------------------------
      1         78           0       -0.050130   -0.008027   -0.038364
      2         35           0        2.403731    0.211453   -0.070412
      3          7           0       -0.310263    1.915009   -0.682887
      4          8           0        0.785914    2.646873   -0.662465
      5          8           0       -1.265898    2.529462   -0.011910
      6          7           0        0.216828   -1.908312    0.662767
      7          8           0        0.738563   -2.725587   -0.231041
      8          8           0        0.940655   -1.937652    1.765278
      9         17           0       -0.017132   -0.708060   -2.245250
     10         17           0       -0.107382    0.777457    2.138179
     11         35           0       -2.486958   -0.345891    0.015400
 ---------------------------------------------------------------------
 Rotational constants (GHZ):      0.5296463      0.3576960      0.3254810
 Basis read from rwf:  (5D, 7F)
 Pseudo-potential data read from rwf file.
 There are   222 symmetry adapted cartesian basis functions of A   symmetry.
 There are   206 symmetry adapted basis functions of A   symmetry.
   206 basis functions,   427 primitive gaussians,   222 cartesian basis functions
    85 alpha electrons       85 beta electrons
       nuclear repulsion energy      2032.8287576133 Hartrees.
 NAtoms=   11 NActive=   11 NUniq=   11 SFac= 1.00D+00 NAtFMM=   60 NAOKFM=F Big=F
 Integral buffers will be    131072 words long.
 Raffenetti 2 integral format.
 Two-electron integral symmetry is turned on.
 ------------------------------------------------------------------------------
 Polarizable Continuum Model (PCM)
 =================================
 Model                : PCM (using non-symmetric T matrix).
 Atomic radii         : UFF (Universal Force Field).
 Polarization charges : Total charges.
 Charge compensation  : None.
 Solution method      : On-the-fly selection.
 Cavity type          : Scaled VdW (van der Waals Surface) (Alpha=1.100).
 Cavity algorithm     : GePol (No added spheres)
                        Default sphere list used, NSphG=   11.
                        Lebedev-Laikov grids with approx.  5.0 points / Ang**2.
                        Smoothing algorithm: Karplus/York (Gamma=1.0000).
                        Polarization charges: spherical gaussians, with
                                              point-specific exponents (IZeta= 3).
                        Self-potential: point-specific (ISelfS= 7).
                        Self-field    : sphere-specific E.n sum rule (ISelfD= 2).
 1st derivatives      : Analytical E(r).r(x)/FMM algorithm (CHGder, D1EAlg=3).
                        Cavity 1st derivative terms included.
 Solvent              : Water, Eps=  78.355300 Eps(inf)=   1.777849
 ------------------------------------------------------------------------------
 Spheres list:
 ISph  on   Nord     Re0    Alpha      Xe            Ye            Ze
    1  Pt      1    1.3770  1.100     -0.050130     -0.008027     -0.038364
    2  Br      2    2.0945  1.100      2.403731      0.211453     -0.070412
    3   N      3    1.8300  1.100     -0.310263      1.915009     -0.682887
    4   O      4    1.7500  1.100      0.785914      2.646873     -0.662465
    5   O      5    1.7500  1.100     -1.265898      2.529462     -0.011910
    6   N      6    1.8300  1.100      0.216828     -1.908312      0.662767
    7   O      7    1.7500  1.100      0.738563     -2.725587     -0.231041
    8   O      8    1.7500  1.100      0.940655     -1.937652      1.765278
    9  Cl      9    1.9735  1.100     -0.017132     -0.708060     -2.245250
   10  Cl     10    1.9735  1.100     -0.107382      0.777457      2.138179
   11  Br     11    2.0945  1.100     -2.486958     -0.345891      0.015400
 ------------------------------------------------------------------------------
 One-electron integrals computed using PRISM.
   1 Symmetry operations used in ECPInt.
 ECPInt:  NShTT=    3570 NPrTT=   17235 LenC2=    3307 LenP2D=   11073.
 LDataN:  DoStor=T MaxTD1= 6 Len=  172
 NBasis=   206 RedAO= T EigKep=  4.82D-03  NBF=   206
 NBsUse=   206 1.00D-06 EigRej= -1.00D+00 NBFU=   206
 Defaulting to unpruned grid for atomic number  78.
 Initial guess from the checkpoint file:  "/home/scr/diego/Gau-8117.chk"
 B after Tr=     0.000000    0.000000    0.000000
         Rot=    0.998389   -0.055662   -0.003788   -0.010349 Ang=  -6.51 deg.
 ExpMin= 2.90D-02 ExpMax= 1.13D+05 ExpMxC= 1.70D+04 IAcc=3 IRadAn=         5 AccDes= 0.00D+00
 Harris functional with IExCor=  402 and IRadAn=       5 diagonalized for initial guess.
 HarFok:  IExCor=  402 AccDes= 0.00D+00 IRadAn=         5 IDoV= 1 UseB2=F ITyADJ=14
 ICtDFT=  3500011 ScaDFX=  1.000000  1.000000  1.000000  1.000000
 Defaulting to unpruned grid for atomic number  78.
 Defaulting to unpruned grid for atomic number  78.
 Defaulting to unpruned grid for atomic number  78.
 Defaulting to unpruned grid for atomic number  78.
 Defaulting to unpruned grid for atomic number  78.
 Defaulting to unpruned grid for atomic number  78.
 Defaulting to unpruned grid for atomic number  78.
 Defaulting to unpruned grid for atomic number  78.
 FoFCou: FMM=F IPFlag=           0 FMFlag=      100000 FMFlg1=           0
         NFxFlg=           0 DoJE=T BraDBF=F KetDBF=T FulRan=T
         wScrn=  0.000000 ICntrl=     500 IOpCl=  0 I1Cent=   200000004 NGrid=           0
         NMat0=    1 NMatS0=      1 NMatT0=    0 NMatD0=    1 NMtDS0=    0 NMtDT0=    0
 Petite list used in FoFCou.
 Keep R1 ints in memory in canonical form, NReq=233470677.
 Requested convergence on RMS density matrix=1.00D-08 within 128 cycles.
 Requested convergence on MAX density matrix=1.00D-06.
 Requested convergence on             energy=1.00D-06.
 No special actions if energy rises.
 Defaulting to unpruned grid for atomic number  78.
 Defaulting to unpruned grid for atomic number  78.
 Defaulting to unpruned grid for atomic number  78.
 Defaulting to unpruned grid for atomic number  78.
 Defaulting to unpruned grid for atomic number  78.
 Defaulting to unpruned grid for atomic number  78.
 Defaulting to unpruned grid for atomic number  78.
 Defaulting to unpruned grid for atomic number  78.
 Inv3:  Mode=1 IEnd=     7651227.
 Iteration    1 A*A^-1 deviation from unit magnitude is 5.77D-15 for    271.
 Iteration    1 A*A^-1 deviation from orthogonality  is 2.58D-15 for    721    195.
 Iteration    1 A^-1*A deviation from unit magnitude is 5.88D-15 for    735.
 Iteration    1 A^-1*A deviation from orthogonality  is 4.08D-13 for    895    648.
 Error on total polarization charges =  0.01339
 SCF Done:  E(RB3LYP) =  -6597.27619779     A.U. after   16 cycles
            NFock= 16  Conv=0.31D-08     -V/T= 2.0142
   1 Symmetry operations used in ECPInt.
 ECPInt:  NShTT=    3570 NPrTT=   17235 LenC2=    3307 LenP2D=   11073.
 LDataN:  DoStor=T MaxTD1= 7 Len=  274
 D1PCM: PCM CHGder 1st derivatives, ID1Alg=3 FixD1E=F DoIter=F DoCFld=F I1PDM=0.
 Calling FoFJK, ICntrl=      2127 FMM=F ISym2X=0 I1Cent= 0 IOpClX= 0 NMat=1 NMatS=1 NMatT=0.
 Defaulting to unpruned grid for atomic number  78.
 Defaulting to unpruned grid for atomic number  78.
 Defaulting to unpruned grid for atomic number  78.
 Defaulting to unpruned grid for atomic number  78.
 Defaulting to unpruned grid for atomic number  78.
 Defaulting to unpruned grid for atomic number  78.
 Defaulting to unpruned grid for atomic number  78.
 Defaulting to unpruned grid for atomic number  78.
 ***** Axes restored to original set *****
 -------------------------------------------------------------------
 Center     Atomic                   Forces (Hartrees/Bohr)
 Number     Number              X              Y              Z
 -------------------------------------------------------------------
      1       78          -0.000564534   -0.027522082   -0.017037913
      2       35           0.004765872    0.027046255   -0.001136271
      3        7          -0.089188377    0.046806823    0.151537083
      4        8           0.028186498   -0.061579879   -0.053901403
      5        8           0.026550159    0.022353691   -0.078753118
      6        7           0.090118103    0.158008707   -0.012909795
      7        8          -0.029330875   -0.063936994    0.050496300
      8        8          -0.026048718   -0.073236970   -0.036785219
      9       17          -0.005233273   -0.000972261   -0.030540496
     10       17          -0.002916304   -0.000601336    0.030908679
     11       35           0.003661447   -0.026365955   -0.001877847
 -------------------------------------------------------------------
 Cartesian Forces:  Max     0.158008707 RMS     0.055212151

 GradGradGradGradGradGradGradGradGradGradGradGradGradGradGradGradGradGrad
 Berny optimization.
 Using GEDIIS/GDIIS optimizer.
 FormGI is forming the generalized inverse of G from B-inverse, IUseBI=4.
 Internal  Forces:  Max     0.076501567 RMS     0.025441033
 Search for a local minimum.
 Step number   2 out of a maximum of   64
 All quantities printed in internal units (Hartrees-Bohrs-Radians)
 Mixed Optimization -- RFO/linear search
 Update second derivatives using D2CorX and points    1    2
 DE= -7.09D-02 DEPred=-7.26D-02 R= 9.78D-01
 TightC=F SS=  1.41D+00  RLast= 3.64D-01 DXNew= 5.0454D-01 1.0912D+00
 Trust test= 9.78D-01 RLast= 3.64D-01 DXMaxT set to 5.05D-01
 ITU=  1  0
 Use linear search instead of GDIIS.
 Linear search step of   0.595 exceeds DXMaxT=   0.505 but not scaled.
 Quartic linear search produced a step of  2.00000.
 Iteration  1 RMS(Cart)=  0.14223834 RMS(Int)=  0.01274024
 Iteration  2 RMS(Cart)=  0.01087781 RMS(Int)=  0.00725583
 Iteration  3 RMS(Cart)=  0.00013786 RMS(Int)=  0.00725461
 Iteration  4 RMS(Cart)=  0.00000217 RMS(Int)=  0.00725461
 Iteration  5 RMS(Cart)=  0.00000003 RMS(Int)=  0.00725461
 Variable       Old X    -DE/DX   Delta X   Delta X   Delta X     New X
                                 (Linear)    (Quad)   (Total)
    R1        4.65603   0.02719   0.12799   0.00000   0.12799   4.78402
    R2        3.86408   0.03485   0.20706   0.00000   0.20709   4.07117
    R3        3.86075   0.03500   0.20039   0.00000   0.20036   4.06111
    R4        4.37564   0.03073   0.13412   0.00000   0.13412   4.50976
    R5        4.37405   0.03091   0.13096   0.00000   0.13096   4.50501
    R6        4.65010   0.02643   0.11613   0.00000   0.11613   4.76622
    R7        2.49103  -0.07650  -0.15799   0.00000  -0.15799   2.33304
    R8        2.49344  -0.07572  -0.15318   0.00000  -0.15318   2.34026
    R9        2.49203  -0.07603  -0.15599   0.00000  -0.15599   2.33604
   R10        2.49295  -0.07630  -0.15416   0.00000  -0.15416   2.33878
    A1        1.60963   0.00051   0.07767   0.00000   0.07652   1.68615
    A2        1.52797  -0.00927  -0.08566   0.00000  -0.08510   1.44287
    A3        1.57114   0.00013   0.00068   0.00000   0.00486   1.57600
    A4        1.57743   0.00102   0.01327   0.00000   0.01536   1.59279
    A5        1.55652  -0.00187  -0.02856   0.00000  -0.02937   1.52715
    A6        1.54490  -0.00568  -0.05180   0.00000  -0.05117   1.49373
    A7        1.58083   0.00785   0.02007   0.00000   0.02096   1.60179
    A8        1.61483   0.00794   0.08807   0.00000   0.08736   1.70219
    A9        1.56696  -0.00034  -0.00766   0.00000  -0.00668   1.56029
   A10        1.56499   0.00100  -0.01162   0.00000  -0.01045   1.55454
   A11        1.56422  -0.00132  -0.01315   0.00000  -0.01052   1.55370
   A12        1.57235   0.00087   0.00311   0.00000   0.00585   1.57821
   A13        1.99486   0.01326   0.16846   0.00000   0.14975   2.14461
   A14        1.94960   0.00501   0.07793   0.00000   0.05861   2.00821
   A15        1.91330   0.01085   0.00533   0.00000  -0.01916   1.89414
   A16        1.97745   0.00720   0.13364   0.00000   0.11668   2.09413
   A17        1.95972   0.01137   0.09818   0.00000   0.08069   2.04041
   A18        1.91302   0.01068   0.00477   0.00000  -0.01820   1.89482
   A19        3.19046   0.00836   0.09774   0.00000   0.09748   3.28794
   A20        3.13760  -0.00876  -0.00799   0.00000  -0.00858   3.12902
   A21        3.14857   0.00115   0.01395   0.00000   0.02022   3.16878
   A22        3.13466  -0.00140  -0.01386   0.00000  -0.01136   3.12330
   A23        3.11181  -0.00609  -0.05956   0.00000  -0.05869   3.05312
   A24        3.10165  -0.00751  -0.07988   0.00000  -0.07844   3.02321
    D1       -0.19528   0.01381   0.08144   0.00000   0.08814  -0.10714
    D2       -2.38026  -0.01580  -0.09973   0.00000  -0.10135  -2.48161
    D3       -1.76586   0.01377   0.08187   0.00000   0.08775  -1.67811
    D4        2.33234  -0.01585  -0.09930   0.00000  -0.10174   2.23060
    D5        1.38115   0.01461   0.09271   0.00000   0.09576   1.47691
    D6       -0.80383  -0.01501  -0.08846   0.00000  -0.09373  -0.89755
    D7        2.95325   0.01521   0.09530   0.00000   0.09950   3.05275
    D8        0.76827  -0.01440  -0.08587   0.00000  -0.08998   0.67828
    D9       -1.40178   0.00019  -0.00592   0.00000  -0.01045  -1.41223
   D10        0.77667   0.02653   0.16220   0.00000   0.16049   0.93716
   D11        2.70755  -0.02608  -0.16483   0.00000  -0.16634   2.54121
   D12       -1.39718   0.00025   0.00329   0.00000   0.00460  -1.39259
   D13       -1.20210  -0.01433  -0.07855   0.00000  -0.07629  -1.27839
   D14        0.97685   0.01505   0.09056   0.00000   0.09801   1.07486
   D15        0.36715  -0.01495  -0.08164   0.00000  -0.08645   0.28070
   D16        2.54610   0.01443   0.08747   0.00000   0.08785   2.63395
   D17       -2.77971  -0.01541  -0.09216   0.00000  -0.09301  -2.87271
   D18       -0.60075   0.01398   0.07695   0.00000   0.08129  -0.51946
   D19        1.93111  -0.01628  -0.09532   0.00000  -0.09901   1.83210
   D20       -2.17313   0.01311   0.07380   0.00000   0.07529  -2.09784
         Item               Value     Threshold  Converged?
 Maximum Force            0.076502     0.000450     NO 
 RMS     Force            0.025441     0.000300     NO 
 Maximum Displacement     0.461905     0.001800     NO 
 RMS     Displacement     0.141009     0.001200     NO 
 Predicted change in Energy=-5.892743D-02
 GradGradGradGradGradGradGradGradGradGradGradGradGradGradGradGradGradGrad

                          Input orientation:                          
 ---------------------------------------------------------------------
 Center     Atomic      Atomic             Coordinates (Angstroms)
 Number     Number       Type             X           Y           Z
 ---------------------------------------------------------------------
      1         78           0       -0.328069    0.391259   -0.022928
      2         35           0       -0.083045    2.910515   -0.070716
      3          7           0       -2.476302    0.354019    0.135237
      4          8           0       -3.155121    1.374429    0.284188
      5          8           0       -2.932994   -0.532975    0.868950
      6          7           0        1.819715    0.458455    0.007438
      7          8           0        2.442749    0.765285   -1.015218
      8          8           0        2.348858    1.020578    0.974783
      9         17           0       -0.606460    0.360909   -2.392902
     10         17           0       -0.336501    0.384620    2.360996
     11         35           0       -0.207868   -2.127926   -0.048205
 ---------------------------------------------------------------------
                    Distance matrix (angstroms):
                    1          2          3          4          5
     1  Pt   0.000000
     2  Br   2.531595   0.000000
     3  N    2.154370   3.507958   0.000000
     4  O    3.008848   3.452994   1.234592   0.000000
     5  O    2.904357   4.567582   1.238411   2.007356   0.000000
     6  N    2.149049   3.104707   4.299186   5.066023   4.930860
     7  O    2.966811   3.445828   5.068506   5.778898   5.842447
     8  O    2.925304   3.252550   4.942803   5.558409   5.506604
     9  Cl   2.386461   3.488123   3.144494   3.832715   4.105054
    10  Cl   2.383948   3.515339   3.087667   3.638334   3.132086
    11  Br   2.522178   5.040038   3.367417   4.589474   3.288062
                    6          7          8          9         10
     6  N    0.000000
     7  O    1.236180   0.000000
     8  O    1.237631   2.008505   0.000000
     9  Cl   3.414303   3.370343   4.528837   0.000000
    10  Cl   3.192797   4.389528   3.088232   4.761616   0.000000
    11  Br   3.286876   4.041233   4.182873   3.442496   3.483344
                   11
    11  Br   0.000000
 Stoichiometry    Br2Cl2N2O4Pt(2-)
 Framework group  C1[X(Br2Cl2N2O4Pt)]
 Deg. of freedom    27
 Full point group                 C1      NOp   1
 Largest Abelian subgroup         C1      NOp   1
 Largest concise Abelian subgroup C1      NOp   1
                         Standard orientation:                         
 ---------------------------------------------------------------------
 Center     Atomic      Atomic             Coordinates (Angstroms)
 Number     Number       Type             X           Y           Z
 ---------------------------------------------------------------------
      1         78           0       -0.040459    0.019893   -0.043571
      2         35           0        2.479802    0.257802   -0.069217
      3          7           0       -0.489568    2.111149   -0.300986
      4          8           0        0.378829    2.988688   -0.295800
      5          8           0       -1.466654    2.520672    0.340304
      6          7           0        0.432879   -2.029247    0.398454
      7          8           0        0.880000   -2.765213   -0.488438
      8          8           0        1.059027   -2.246530    1.443661
      9         17           0       -0.059235   -0.169683   -2.422417
     10         17           0       -0.112873    0.481181    2.294201
     11         35           0       -2.489264   -0.583555   -0.019409
 ---------------------------------------------------------------------
 Rotational constants (GHZ):      0.4849992      0.3408063      0.3049761
 Basis read from rwf:  (5D, 7F)
 Pseudo-potential data read from rwf file.
 There are   222 symmetry adapted cartesian basis functions of A   symmetry.
 There are   206 symmetry adapted basis functions of A   symmetry.
   206 basis functions,   427 primitive gaussians,   222 cartesian basis functions
    85 alpha electrons       85 beta electrons
       nuclear repulsion energy      1975.1562493555 Hartrees.
 NAtoms=   11 NActive=   11 NUniq=   11 SFac= 1.00D+00 NAtFMM=   60 NAOKFM=F Big=F
 Integral buffers will be    131072 words long.
 Raffenetti 2 integral format.
 Two-electron integral symmetry is turned on.
 ------------------------------------------------------------------------------
 Polarizable Continuum Model (PCM)
 =================================
 Model                : PCM (using non-symmetric T matrix).
 Atomic radii         : UFF (Universal Force Field).
 Polarization charges : Total charges.
 Charge compensation  : None.
 Solution method      : On-the-fly selection.
 Cavity type          : Scaled VdW (van der Waals Surface) (Alpha=1.100).
 Cavity algorithm     : GePol (No added spheres)
                        Default sphere list used, NSphG=   11.
                        Lebedev-Laikov grids with approx.  5.0 points / Ang**2.
                        Smoothing algorithm: Karplus/York (Gamma=1.0000).
                        Polarization charges: spherical gaussians, with
                                              point-specific exponents (IZeta= 3).
                        Self-potential: point-specific (ISelfS= 7).
                        Self-field    : sphere-specific E.n sum rule (ISelfD= 2).
 1st derivatives      : Analytical E(r).r(x)/FMM algorithm (CHGder, D1EAlg=3).
                        Cavity 1st derivative terms included.
 Solvent              : Water, Eps=  78.355300 Eps(inf)=   1.777849
 ------------------------------------------------------------------------------
 Spheres list:
 ISph  on   Nord     Re0    Alpha      Xe            Ye            Ze
    1  Pt      1    1.3770  1.100     -0.040459      0.019893     -0.043571
    2  Br      2    2.0945  1.100      2.479802      0.257802     -0.069217
    3   N      3    1.8300  1.100     -0.489568      2.111149     -0.300986
    4   O      4    1.7500  1.100      0.378829      2.988688     -0.295800
    5   O      5    1.7500  1.100     -1.466654      2.520672      0.340304
    6   N      6    1.8300  1.100      0.432879     -2.029247      0.398454
    7   O      7    1.7500  1.100      0.880000     -2.765213     -0.488438
    8   O      8    1.7500  1.100      1.059027     -2.246530      1.443661
    9  Cl      9    1.9735  1.100     -0.059235     -0.169683     -2.422417
   10  Cl     10    1.9735  1.100     -0.112873      0.481181      2.294201
   11  Br     11    2.0945  1.100     -2.489264     -0.583555     -0.019409
 ------------------------------------------------------------------------------
 One-electron integrals computed using PRISM.
   1 Symmetry operations used in ECPInt.
 ECPInt:  NShTT=    3570 NPrTT=   17235 LenC2=    3273 LenP2D=   10944.
 LDataN:  DoStor=T MaxTD1= 6 Len=  172
 NBasis=   206 RedAO= T EigKep=  5.28D-03  NBF=   206
 NBsUse=   206 1.00D-06 EigRej= -1.00D+00 NBFU=   206
 Defaulting to unpruned grid for atomic number  78.
 Initial guess from the checkpoint file:  "/home/scr/diego/Gau-8117.chk"
 B after Tr=     0.000000    0.000000    0.000000
         Rot=    0.996312   -0.079699   -0.007730   -0.030839 Ang=  -9.84 deg.
 ExpMin= 2.90D-02 ExpMax= 1.13D+05 ExpMxC= 1.70D+04 IAcc=3 IRadAn=         5 AccDes= 0.00D+00
 Harris functional with IExCor=  402 and IRadAn=       5 diagonalized for initial guess.
 HarFok:  IExCor=  402 AccDes= 0.00D+00 IRadAn=         5 IDoV= 1 UseB2=F ITyADJ=14
 ICtDFT=  3500011 ScaDFX=  1.000000  1.000000  1.000000  1.000000
 Defaulting to unpruned grid for atomic number  78.
 Defaulting to unpruned grid for atomic number  78.
 Defaulting to unpruned grid for atomic number  78.
 Defaulting to unpruned grid for atomic number  78.
 Defaulting to unpruned grid for atomic number  78.
 Defaulting to unpruned grid for atomic number  78.
 Defaulting to unpruned grid for atomic number  78.
 Defaulting to unpruned grid for atomic number  78.
 FoFCou: FMM=F IPFlag=           0 FMFlag=      100000 FMFlg1=           0
         NFxFlg=           0 DoJE=T BraDBF=F KetDBF=T FulRan=T
         wScrn=  0.000000 ICntrl=     500 IOpCl=  0 I1Cent=   200000004 NGrid=           0
         NMat0=    1 NMatS0=      1 NMatT0=    0 NMatD0=    1 NMtDS0=    0 NMtDT0=    0
 Petite list used in FoFCou.
 Keep R1 ints in memory in canonical form, NReq=233682869.
 Requested convergence on RMS density matrix=1.00D-08 within 128 cycles.
 Requested convergence on MAX density matrix=1.00D-06.
 Requested convergence on             energy=1.00D-06.
 No special actions if energy rises.
 Defaulting to unpruned grid for atomic number  78.
 Defaulting to unpruned grid for atomic number  78.
 Defaulting to unpruned grid for atomic number  78.
 Defaulting to unpruned grid for atomic number  78.
 Defaulting to unpruned grid for atomic number  78.
 Defaulting to unpruned grid for atomic number  78.
 Defaulting to unpruned grid for atomic number  78.
 Defaulting to unpruned grid for atomic number  78.
 Inv3:  Mode=1 IEnd=     8276763.
 Iteration    1 A*A^-1 deviation from unit magnitude is 6.66D-15 for    136.
 Iteration    1 A*A^-1 deviation from orthogonality  is 4.57D-15 for   1534   1016.
 Iteration    1 A^-1*A deviation from unit magnitude is 6.11D-15 for   1235.
 Iteration    1 A^-1*A deviation from orthogonality  is 6.86D-15 for   1265    645.
 Error on total polarization charges =  0.01263
 SCF Done:  E(RB3LYP) =  -6597.33581404     A.U. after   16 cycles
            NFock= 16  Conv=0.77D-08     -V/T= 2.0142
   1 Symmetry operations used in ECPInt.
 ECPInt:  NShTT=    3570 NPrTT=   17235 LenC2=    3273 LenP2D=   10944.
 LDataN:  DoStor=T MaxTD1= 7 Len=  274
 D1PCM: PCM CHGder 1st derivatives, ID1Alg=3 FixD1E=F DoIter=F DoCFld=F I1PDM=0.
 Calling FoFJK, ICntrl=      2127 FMM=F ISym2X=0 I1Cent= 0 IOpClX= 0 NMat=1 NMatS=1 NMatT=0.
 Defaulting to unpruned grid for atomic number  78.
 Defaulting to unpruned grid for atomic number  78.
 Defaulting to unpruned grid for atomic number  78.
 Defaulting to unpruned grid for atomic number  78.
 Defaulting to unpruned grid for atomic number  78.
 Defaulting to unpruned grid for atomic number  78.
 Defaulting to unpruned grid for atomic number  78.
 Defaulting to unpruned grid for atomic number  78.
 ***** Axes restored to original set *****
 -------------------------------------------------------------------
 Center     Atomic                   Forces (Hartrees/Bohr)
 Number     Number              X              Y              Z
 -------------------------------------------------------------------
      1       78          -0.000694447   -0.016835412   -0.006647581
      2       35          -0.005532849    0.009319285   -0.000475619
      3        7          -0.052484520    0.017998565    0.095278447
      4        8           0.024157177    0.039937455   -0.056277513
      5        8           0.030242162   -0.053313923   -0.029326012
      6        7           0.056003826    0.098276425   -0.004684051
      7        8          -0.027461145   -0.049684691   -0.046338205
      8        8          -0.027789280   -0.038572405    0.048544238
      9       17           0.002424673    0.000653557   -0.007674312
     10       17           0.000818773    0.000603413    0.007887061
     11       35           0.000315630   -0.008382268   -0.000286452
 -------------------------------------------------------------------
 Cartesian Forces:  Max     0.098276425 RMS     0.037159400

 GradGradGradGradGradGradGradGradGradGradGradGradGradGradGradGradGradGrad
 Berny optimization.
 Using GEDIIS/GDIIS optimizer.
 FormGI is forming the generalized inverse of G from B-inverse, IUseBI=4.
 Internal  Forces:  Max     0.072430842 RMS     0.019894635
 Search for a local minimum.
 Step number   3 out of a maximum of   64
 All quantities printed in internal units (Hartrees-Bohrs-Radians)
 Mixed Optimization -- RFO/linear search
 Update second derivatives using D2CorX and points    2    3
 ITU=  0  1  0
 Use linear search instead of GDIIS.
     Eigenvalues ---    0.00230   0.00230   0.01374   0.01429   0.06339
     Eigenvalues ---    0.06349   0.11131   0.11595   0.12575   0.12586
     Eigenvalues ---    0.12613   0.16158   0.19510   0.19758   0.20378
     Eigenvalues ---    0.21603   0.22001   0.24637   0.24936   0.24966
     Eigenvalues ---    0.24989   0.24993   0.32588   0.52934   0.52948
     Eigenvalues ---    0.52948   0.61017
 RFO step:  Lambda=-8.44483196D-02 EMin= 2.29991306D-03
 Quartic linear search produced a step of  0.01733.
 Iteration  1 RMS(Cart)=  0.06266184 RMS(Int)=  0.01214150
 Iteration  2 RMS(Cart)=  0.01320107 RMS(Int)=  0.00129886
 Iteration  3 RMS(Cart)=  0.00013389 RMS(Int)=  0.00129429
 Iteration  4 RMS(Cart)=  0.00000017 RMS(Int)=  0.00129429
 Variable       Old X    -DE/DX   Delta X   Delta X   Delta X     New X
                                 (Linear)    (Quad)   (Total)
    R1        4.78402   0.00875   0.00222   0.04674   0.04895   4.83298
    R2        4.07117  -0.00142   0.00359   0.02296   0.02655   4.09772
    R3        4.06111   0.00116   0.00347   0.03013   0.03360   4.09471
    R4        4.50976   0.00733   0.00232   0.04196   0.04428   4.55404
    R5        4.50501   0.00788   0.00227   0.04355   0.04582   4.55083
    R6        4.76622   0.00839   0.00201   0.04510   0.04711   4.81334
    R7        2.33304   0.01293  -0.00274  -0.01239  -0.01513   2.31791
    R8        2.34026   0.00968  -0.00266  -0.01632  -0.01898   2.32128
    R9        2.33604   0.01218  -0.00270  -0.01318  -0.01588   2.32016
   R10        2.33878   0.00853  -0.00267  -0.01805  -0.02072   2.31806
    A1        1.68615  -0.01593   0.00133  -0.04921  -0.04823   1.63792
    A2        1.44287   0.00671  -0.00147   0.00706   0.00535   1.44822
    A3        1.57600  -0.00176   0.00008  -0.00605  -0.00577   1.57023
    A4        1.59279  -0.00025   0.00027   0.00022   0.00049   1.59328
    A5        1.52715   0.00486  -0.00051   0.01081   0.01027   1.53742
    A6        1.49373  -0.00008  -0.00089  -0.00001  -0.00092   1.49281
    A7        1.60179   0.00828   0.00036   0.02805   0.02875   1.63055
    A8        1.70219  -0.00523   0.00151  -0.01092  -0.00936   1.69283
    A9        1.56029   0.00056  -0.00012   0.00064   0.00048   1.56077
   A10        1.55454   0.00096  -0.00018   0.01443   0.01451   1.56905
   A11        1.55370   0.00000  -0.00018  -0.00120  -0.00134   1.55236
   A12        1.57821   0.00042   0.00010   0.00300   0.00316   1.58137
   A13        2.14461  -0.04390   0.00260  -0.06335  -0.06379   2.08082
   A14        2.00821  -0.03338   0.00102  -0.04161  -0.04344   1.96477
   A15        1.89414   0.07243  -0.00033   0.22784   0.22406   2.11820
   A16        2.09413  -0.04287   0.00202  -0.06153  -0.06321   2.03092
   A17        2.04041  -0.03062   0.00140  -0.02835  -0.03084   2.00957
   A18        1.89482   0.07111  -0.00032   0.22843   0.22361   2.11844
   A19        3.28794  -0.00765   0.00169  -0.02116  -0.01948   3.26847
   A20        3.12902  -0.00921  -0.00015  -0.04215  -0.04288   3.08614
   A21        3.16878  -0.00201   0.00035  -0.00583  -0.00528   3.16351
   A22        3.12330  -0.00073  -0.00020  -0.00480  -0.00500   3.11830
   A23        3.05312   0.00043  -0.00102   0.00014  -0.00107   3.05205
   A24        3.02321   0.00437  -0.00136   0.00953   0.00823   3.03144
    D1       -0.10714   0.01081   0.00153   0.12609   0.12827   0.02113
    D2       -2.48161  -0.01296  -0.00176  -0.13896  -0.14053  -2.62214
    D3       -1.67811   0.01133   0.00152   0.12879   0.13126  -1.54686
    D4        2.23060  -0.01245  -0.00176  -0.13627  -0.13754   2.09307
    D5        1.47691   0.01176   0.00166   0.13004   0.13236   1.60927
    D6       -0.89755  -0.01202  -0.00162  -0.13502  -0.13644  -1.03399
    D7        3.05275   0.01154   0.00172   0.13089   0.13326  -3.09717
    D8        0.67828  -0.01224  -0.00156  -0.13417  -0.13553   0.54275
    D9       -1.41223   0.00220  -0.00018   0.00208   0.00049  -1.41173
   D10        0.93716   0.02557   0.00278   0.26110   0.26392   1.20109
   D11        2.54121  -0.02479  -0.00288  -0.26203  -0.26696   2.27425
   D12       -1.39259  -0.00141   0.00008  -0.00301  -0.00353  -1.39612
   D13       -1.27839  -0.01400  -0.00132  -0.13874  -0.13967  -1.41806
   D14        1.07486   0.01344   0.00170   0.13989   0.14227   1.21714
   D15        0.28070  -0.01421  -0.00150  -0.14253  -0.14364   0.13705
   D16        2.63395   0.01322   0.00152   0.13610   0.13830   2.77225
   D17       -2.87271  -0.01358  -0.00161  -0.13878  -0.14003  -3.01274
   D18       -0.51946   0.01385   0.00141   0.13984   0.14191  -0.37755
   D19        1.83210  -0.01399  -0.00172  -0.14162  -0.14304   1.68905
   D20       -2.09784   0.01345   0.00131   0.13700   0.13890  -1.95894
         Item               Value     Threshold  Converged?
 Maximum Force            0.072431     0.000450     NO 
 RMS     Force            0.019895     0.000300     NO 
 Maximum Displacement     0.160266     0.001800     NO 
 RMS     Displacement     0.068384     0.001200     NO 
 Predicted change in Energy=-6.637145D-02
 GradGradGradGradGradGradGradGradGradGradGradGradGradGradGradGradGradGrad

                          Input orientation:                          
 ---------------------------------------------------------------------
 Center     Atomic      Atomic             Coordinates (Angstroms)
 Number     Number       Type             X           Y           Z
 ---------------------------------------------------------------------
      1         78           0       -0.325878    0.391766    0.000593
      2         35           0       -0.167854    2.943807   -0.053498
      3          7           0       -2.485927    0.383797    0.190803
      4          8           0       -3.089801    1.451347    0.204430
      5          8           0       -2.901313   -0.593622    0.808051
      6          7           0        1.836950    0.523352    0.001276
      7          8           0        2.372740    0.700336   -1.089155
      8          8           0        2.332089    0.960973    1.034734
      9         17           0       -0.617131    0.360473   -2.391433
     10         17           0       -0.302156    0.387087    2.408666
     11         35           0       -0.166755   -2.150148   -0.032843
 ---------------------------------------------------------------------
                    Distance matrix (angstroms):
                    1          2          3          4          5
     1  Pt   0.000000
     2  Br   2.557500   0.000000
     3  N    2.168422   3.462195   0.000000
     4  O    2.967074   3.291161   1.226585   0.000000
     5  O    2.873298   4.552743   1.228369   2.140511   0.000000
     6  N    2.166828   3.143381   4.329280   5.017502   4.934537
     7  O    2.926654   3.544060   5.034395   5.663632   5.752334
     8  O    2.908304   3.371290   4.925305   5.506974   5.464123
     9  Cl   2.409895   3.513033   3.187614   3.747346   4.045304
    10  Cl   2.408195   3.552057   3.112521   3.709754   3.206147
    11  Br   2.547109   5.093996   3.442303   4.644486   3.256943
                    6          7          8          9         10
     6  N    0.000000
     7  O    1.227775   0.000000
     8  O    1.226667   2.140207   0.000000
     9  Cl   3.431341   3.278836   4.560386   0.000000
    10  Cl   3.223332   4.414515   3.025934   4.810496   0.000000
    11  Br   3.341197   3.961071   4.130740   3.474046   3.523757
                   11
    11  Br   0.000000
 Stoichiometry    Br2Cl2N2O4Pt(2-)
 Framework group  C1[X(Br2Cl2N2O4Pt)]
 Deg. of freedom    27
 Full point group                 C1      NOp   1
 Largest Abelian subgroup         C1      NOp   1
 Largest concise Abelian subgroup C1      NOp   1
                         Standard orientation:                         
 ---------------------------------------------------------------------
 Center     Atomic      Atomic             Coordinates (Angstroms)
 Number     Number       Type             X           Y           Z
 ---------------------------------------------------------------------
      1         78           0       -0.038292    0.020774   -0.031726
      2         35           0        2.517359    0.115810   -0.052331
      3          7           0       -0.265145    2.170723   -0.199976
      4          8           0        0.736450    2.873853   -0.283207
      5          8           0       -1.290823    2.580155    0.337836
      6          7           0        0.308132   -2.088126    0.325592
      7          8           0        0.558638   -2.774353   -0.661206
      8          8           0        0.772891   -2.360497    1.427646
      9         17           0       -0.052288   -0.087991   -2.439125
     10         17           0       -0.087054    0.391039    2.347335
     11         35           0       -2.550575   -0.398771   -0.045179
 ---------------------------------------------------------------------
 Rotational constants (GHZ):      0.4845867      0.3341030      0.3038024
 Basis read from rwf:  (5D, 7F)
 Pseudo-potential data read from rwf file.
 There are   222 symmetry adapted cartesian basis functions of A   symmetry.
 There are   206 symmetry adapted basis functions of A   symmetry.
   206 basis functions,   427 primitive gaussians,   222 cartesian basis functions
    85 alpha electrons       85 beta electrons
       nuclear repulsion energy      1964.8702159275 Hartrees.
 NAtoms=   11 NActive=   11 NUniq=   11 SFac= 1.00D+00 NAtFMM=   60 NAOKFM=F Big=F
 Integral buffers will be    131072 words long.
 Raffenetti 2 integral format.
 Two-electron integral symmetry is turned on.
 ------------------------------------------------------------------------------
 Polarizable Continuum Model (PCM)
 =================================
 Model                : PCM (using non-symmetric T matrix).
 Atomic radii         : UFF (Universal Force Field).
 Polarization charges : Total charges.
 Charge compensation  : None.
 Solution method      : On-the-fly selection.
[...]
 -------------------------------------------------------------------
 Cartesian Forces:  Max     0.000056628 RMS     0.000028844
 FormGI is forming the generalized inverse of G from B-inverse, IUseBI=4.

 GradGradGradGradGradGradGradGradGradGradGradGradGradGradGradGradGradGrad
 Berny optimization.
 Internal  Forces:  Max     0.000078185 RMS     0.000024098
 Search for a local minimum.
 Step number   1 out of a maximum of    2
 All quantities printed in internal units (Hartrees-Bohrs-Radians)
 Second derivative matrix not updated -- analytic derivatives used.
 ITU=  0
     Eigenvalues ---    0.00140   0.00204   0.02468   0.02512   0.04680
     Eigenvalues ---    0.04816   0.05821   0.06606   0.07114   0.08605
     Eigenvalues ---    0.09401   0.09523   0.11065   0.11896   0.11923
     Eigenvalues ---    0.12007   0.12494   0.14340   0.15365   0.18594
     Eigenvalues ---    0.18998   0.29936   0.35833   0.57646   0.57686
     Eigenvalues ---    0.82538   0.84882
 Angle between quadratic step and forces=  73.89 degrees.
 Linear search not attempted -- first point.
 Iteration  1 RMS(Cart)=  0.00044480 RMS(Int)=  0.00000013
 Iteration  2 RMS(Cart)=  0.00000014 RMS(Int)=  0.00000001
 Variable       Old X    -DE/DX   Delta X   Delta X   Delta X     New X
                                 (Linear)    (Quad)   (Total)
    R1        4.84300   0.00003   0.00000   0.00037   0.00037   4.84338
    R2        4.04012   0.00000   0.00000   0.00000   0.00000   4.04013
    R3        4.04053  -0.00003   0.00000  -0.00043  -0.00043   4.04010
    R4        4.56097   0.00002   0.00000   0.00015   0.00015   4.56111
    R5        4.56086   0.00003   0.00000   0.00027   0.00027   4.56113
    R6        4.84317   0.00002   0.00000   0.00021   0.00021   4.84339
    R7        2.30480   0.00008   0.00000   0.00010   0.00010   2.30490
    R8        2.30483   0.00006   0.00000   0.00007   0.00007   2.30490
    R9        2.30495  -0.00006   0.00000  -0.00005  -0.00005   2.30490
   R10        2.30495  -0.00006   0.00000  -0.00006  -0.00006   2.30490
    A1        1.57096  -0.00001   0.00000  -0.00012  -0.00012   1.57084
    A2        1.57056   0.00002   0.00000   0.00018   0.00018   1.57074
    A3        1.57122  -0.00002   0.00000  -0.00036  -0.00036   1.57086
    A4        1.57034   0.00002   0.00000   0.00040   0.00040   1.57074
    A5        1.57063   0.00001   0.00000   0.00013   0.00013   1.57076
    A6        1.57095  -0.00003   0.00000  -0.00014  -0.00014   1.57081
    A7        1.57086   0.00001   0.00000  -0.00001  -0.00001   1.57085
    A8        1.57075   0.00001   0.00000   0.00003   0.00003   1.57078
    A9        1.57085   0.00000   0.00000  -0.00002  -0.00002   1.57083
   A10        1.57081  -0.00002   0.00000  -0.00005  -0.00005   1.57076
   A11        1.57050   0.00002   0.00000   0.00028   0.00028   1.57078
   A12        1.57112  -0.00002   0.00000  -0.00032  -0.00032   1.57080
   A13        2.06897   0.00000   0.00000   0.00006   0.00006   2.06903
   A14        2.06917  -0.00003   0.00000  -0.00011  -0.00011   2.06906
   A15        2.14505   0.00003   0.00000   0.00005   0.00005   2.14510
   A16        2.06888   0.00003   0.00000   0.00015   0.00015   2.06903
   A17        2.06908   0.00001   0.00000  -0.00003  -0.00003   2.06905
   A18        2.14523  -0.00004   0.00000  -0.00012  -0.00012   2.14511
   A19        3.14182   0.00000   0.00000  -0.00013  -0.00013   3.14168
   A20        3.14152   0.00001   0.00000   0.00005   0.00005   3.14158
   A21        3.14156   0.00000   0.00000   0.00004   0.00004   3.14160
   A22        3.14172   0.00000   0.00000  -0.00008  -0.00008   3.14164
   A23        3.14180  -0.00002   0.00000  -0.00016  -0.00016   3.14164
   A24        3.14158  -0.00001   0.00000  -0.00001  -0.00001   3.14157
    D1        0.85867  -0.00001   0.00000   0.00011   0.00011   0.85877
    D2       -2.28292  -0.00001   0.00000   0.00009   0.00009  -2.28283
    D3       -0.71255   0.00001   0.00000   0.00046   0.00046  -0.71209
    D4        2.42905   0.00001   0.00000   0.00045   0.00045   2.42950
    D5        2.42901   0.00001   0.00000   0.00051   0.00051   2.42951
    D6       -0.71258   0.00001   0.00000   0.00049   0.00049  -0.71209
    D7       -2.28306  -0.00001   0.00000   0.00018   0.00018  -2.28287
    D8        0.85855  -0.00001   0.00000   0.00017   0.00017   0.85872
    D9       -1.42291  -0.00001   0.00000  -0.00064  -0.00064  -1.42355
   D10        1.71854   0.00000   0.00000  -0.00054  -0.00054   1.71801
   D11        1.71865   0.00000   0.00000  -0.00062  -0.00062   1.71803
   D12       -1.42308   0.00001   0.00000  -0.00052  -0.00052  -1.42360
   D13       -2.28165   0.00001   0.00000  -0.00069  -0.00069  -2.28234
   D14        0.85991   0.00001   0.00000  -0.00067  -0.00067   0.85924
   D15       -0.71043  -0.00001   0.00000  -0.00104  -0.00104  -0.71148
   D16        2.43113  -0.00001   0.00000  -0.00102  -0.00102   2.43010
   D17        2.43119  -0.00001   0.00000  -0.00109  -0.00109   2.43011
   D18       -0.71043  -0.00001   0.00000  -0.00107  -0.00107  -0.71150
   D19        0.86007   0.00001   0.00000  -0.00077  -0.00077   0.85930
   D20       -2.28156   0.00000   0.00000  -0.00075  -0.00075  -2.28230
         Item               Value     Threshold  Converged?
 Maximum Force            0.000078     0.000450     YES
 RMS     Force            0.000024     0.000300     YES
 Maximum Displacement     0.001437     0.001800     YES
 RMS     Displacement     0.000445     0.001200     YES
 Predicted change in Energy=-7.779768D-08
 Optimization completed.
    -- Stationary point found.
                           ----------------------------
                           !   Optimized Parameters   !
                           ! (Angstroms and Degrees)  !
 --------------------------                            --------------------------
 ! Name  Definition              Value          Derivative Info.                !
 --------------------------------------------------------------------------------
 ! R1    R(1,2)                  2.5628         -DE/DX =    0.0                 !
 ! R2    R(1,3)                  2.1379         -DE/DX =    0.0                 !
 ! R3    R(1,6)                  2.1382         -DE/DX =    0.0                 !
 ! R4    R(1,9)                  2.4136         -DE/DX =    0.0                 !
 ! R5    R(1,10)                 2.4135         -DE/DX =    0.0                 !
 ! R6    R(1,11)                 2.5629         -DE/DX =    0.0                 !
 ! R7    R(3,4)                  1.2196         -DE/DX =    0.0001              !
 ! R8    R(3,5)                  1.2197         -DE/DX =    0.0001              !
 ! R9    R(6,7)                  1.2197         -DE/DX =   -0.0001              !
 ! R10   R(6,8)                  1.2197         -DE/DX =   -0.0001              !
 ! A1    A(2,1,3)               90.0094         -DE/DX =    0.0                 !
 ! A2    A(2,1,6)               89.9865         -DE/DX =    0.0                 !
 ! A3    A(2,1,9)               90.0242         -DE/DX =    0.0                 !
 ! A4    A(2,1,10)              89.9739         -DE/DX =    0.0                 !
 ! A5    A(3,1,9)               89.9904         -DE/DX =    0.0                 !
 ! A6    A(3,1,10)              90.0089         -DE/DX =    0.0                 !
 ! A7    A(3,1,11)              90.0034         -DE/DX =    0.0                 !
 ! A8    A(6,1,9)               89.9975         -DE/DX =    0.0                 !
 ! A9    A(6,1,10)              90.0032         -DE/DX =    0.0                 !
 ! A10   A(6,1,11)              90.0007         -DE/DX =    0.0                 !
 ! A11   A(9,1,11)              89.9832         -DE/DX =    0.0                 !
 ! A12   A(10,1,11)             90.0187         -DE/DX =    0.0                 !
 ! A13   A(1,3,4)              118.5431         -DE/DX =    0.0                 !
 ! A14   A(1,3,5)              118.5545         -DE/DX =    0.0                 !
 ! A15   A(4,3,5)              122.9023         -DE/DX =    0.0                 !
 ! A16   A(1,6,7)              118.538          -DE/DX =    0.0                 !
 ! A17   A(1,6,8)              118.5494         -DE/DX =    0.0                 !
 ! A18   A(7,6,8)              122.9127         -DE/DX =    0.0                 !
 ! A19   L(2,1,11,3,-1)        180.0128         -DE/DX =    0.0                 !
 ! A20   L(3,1,6,2,-1)         179.9959         -DE/DX =    0.0                 !
 ! A21   L(9,1,10,2,-1)        179.9982         -DE/DX =    0.0                 !
 ! A22   L(2,1,11,3,-2)        180.0074         -DE/DX =    0.0                 !
 ! A23   L(3,1,6,2,-2)         180.0121         -DE/DX =    0.0                 !
 ! A24   L(9,1,10,2,-2)        179.9993         -DE/DX =    0.0                 !
 ! D1    D(2,1,3,4)             49.1979         -DE/DX =    0.0                 !
 ! D2    D(2,1,3,5)           -130.8015         -DE/DX =    0.0                 !
 ! D3    D(9,1,3,4)            -40.8263         -DE/DX =    0.0                 !
 ! D4    D(9,1,3,5)            139.1743         -DE/DX =    0.0                 !
 ! D5    D(10,1,3,4)           139.1719         -DE/DX =    0.0                 !
 ! D6    D(10,1,3,5)           -40.8276         -DE/DX =    0.0                 !
 ! D7    D(11,1,3,4)          -130.8095         -DE/DX =    0.0                 !
 ! D8    D(11,1,3,5)            49.1911         -DE/DX =    0.0                 !
 ! D9    D(4,3,6,7)            -81.5267         -DE/DX =    0.0                 !
 ! D10   D(4,3,6,8)             98.4654         -DE/DX =    0.0                 !
 ! D11   D(5,3,6,7)             98.4713         -DE/DX =    0.0                 !
 ! D12   D(5,3,6,8)            -81.5367         -DE/DX =    0.0                 !
 ! D13   D(2,1,6,7)           -130.7289         -DE/DX =    0.0                 !
 ! D14   D(2,1,6,8)             49.2691         -DE/DX =    0.0                 !
 ! D15   D(9,1,6,7)            -40.7047         -DE/DX =    0.0                 !
 ! D16   D(9,1,6,8)            139.2933         -DE/DX =    0.0                 !
 ! D17   D(10,1,6,7)           139.2971         -DE/DX =    0.0                 !
 ! D18   D(10,1,6,8)           -40.7048         -DE/DX =    0.0                 !
 ! D19   D(11,1,6,7)            49.2785         -DE/DX =    0.0                 !
 ! D20   D(11,1,6,8)          -130.7235         -DE/DX =    0.0                 !
 --------------------------------------------------------------------------------
 GradGradGradGradGradGradGradGradGradGradGradGradGradGradGradGradGradGrad

 1\1\GINC-NEQC17\Freq\RB3LYP\Gen\Br2Cl2N2O4Pt1(2-)\DIEGO\18-Aug-2021\0\
 \#N Geom=AllCheck Guess=TCheck SCRF=Check GenChk RB3LYP/ChkBas Freq\\E
 strutura 40\\-2,1\Pt,-0.3196322469,0.4871293129,0.0984683904\Br,-0.429
 6555142,3.0366180116,0.3350716066\N,-2.448877814,0.380030671,0.2585831
 285\O,-3.1236241731,1.1192656758,-0.4384004934\O,-2.9351625641,-0.4175
 225664,1.0428105859\N,1.8097845754,0.5944312508,-0.0620971454\O,2.3558
 719125,0.0002051707,-0.9766550756\O,2.424567434,1.2471180593,0.7648131
 915\Cl,-0.5109710409,0.7002526088,-2.2980370093\Cl,-0.1283298749,0.274
 0869163,2.4949244311\Br,-0.2090084838,-2.0624482008,-0.1378585004\\Ver
 sion=EM64L-G09RevD.01\State=1-A\HF=-6597.4078907\RMSD=9.987e-09\RMSF=2
 .884e-05\ZeroPoint=0.0276907\Thermal=0.0427403\Dipole=-0.0001109,0.000
 1473,0.0004195\DipoleDeriv=1.0208641,-0.0206055,0.0088836,-0.020625,1.
 4799834,0.0316347,0.0088747,0.0317282,1.1567551,-0.1453661,0.0511958,0
 .0540545,0.0542431,-1.4358235,-0.1207687,0.0232134,-0.1219656,-0.12313
 33,2.5264956,-0.0085152,-0.0496309,-0.0087834,1.3498999,-0.9052237,-0.
 0495219,-0.904253,1.2664551,-1.9551784,0.3431932,-0.3029349,0.3733648,
 -0.7251938,0.3900046,-0.3379021,0.3881768,-0.6777532,-1.7620221,-0.388
 5388,0.4288837,-0.4179846,-0.8021624,0.4869833,0.4637073,0.4842358,-0.
 7941972,2.5142739,0.1397565,-0.1131381,0.1398151,1.0309875,0.8517748,-
 0.1133214,0.8507653,1.5971778,-1.8152279,0.2034519,0.5236121,0.226638,
 -0.5797568,-0.4094251,0.5636429,-0.4031932,-0.9629697,-1.889614,-0.390
 8419,-0.336716,-0.4142261,-0.6416037,-0.4046624,-0.3765827,-0.4059932,
 -0.8268309,-0.1674001,-0.0400699,-0.0920781,0.0009947,-0.1230158,0.102
 6472,-0.0885817,0.1056336,-1.2603742,-0.1716446,0.0512678,-0.0836346,0
 .0101739,-0.1179142,0.1023507,-0.0871183,0.0988098,-1.2611043,-0.15518
 04,0.0597061,-0.0373014,0.0563894,-1.4354006,-0.1253154,-0.00641,-0.12
 39445,-0.1140251\Polar=195.7911821,-2.1407569,246.2609962,-0.5480341,5
 .1207983,191.8041354\PG=C01 [X(Br2Cl2N2O4Pt1)]\NImag=0\\0.18123027,-0.
 00430549,0.26037382,0.00943272,-0.00352675,0.30307252,-0.00996492,0.00
 257019,-0.00035637,0.01667939,0.00249486,-0.06804112,-0.00502223,-0.00
 310682,0.08285195,0.00046697,-0.00499835,-0.01457163,0.00228990,0.0064
 9097,0.01448865,-0.06743837,-0.00215727,0.00191579,-0.00434350,-0.0021
 2036,-0.00034357,0.57564365,-0.00221436,-0.05122460,-0.01851634,-0.001
 60382,-0.00088548,0.00138480,-0.02589242,0.53074635,0.00185716,-0.0176
 1655,-0.05480658,-0.00247251,-0.00024356,-0.00000627,0.01363566,-0.372
 78169,0.50542513,-0.00239080,0.01663006,-0.01615219,-0.00004928,-0.001
 08962,-0.00095249,-0.29376045,0.16725561,-0.15503566,0.25705152,0.0023
 1401,0.00398342,0.01111590,-0.00393816,-0.00240725,-0.00062526,0.16343
 964,-0.23120395,0.17331300,-0.18488554,0.29836922,-0.00141862,0.010292
 63,0.00526812,0.00027494,0.00013432,-0.00030760,-0.15187743,0.17372732
 ,-0.21157184,0.17313551,-0.26369928,0.27187120,0.00197407,-0.01521113,
 0.01555659,0.00060165,-0.00001802,-0.00002375,-0.21904009,-0.13915640,
 0.13894272,0.05295184,0.01939093,-0.01971514,0.17859842,-0.00082936,0.
 00221474,0.01296026,-0.00008494,0.00043941,-0.00042097,-0.13542188,-0.
 26176998,0.21078874,0.00527244,-0.06800002,0.08241707,0.13230068,0.330
 41280,0.00087412,0.01281309,0.00269239,0.00065941,-0.00025891,0.000199
 13,0.13573233,0.21144301,-0.25566325,-0.00600806,0.08204769,-0.0616877
 3,-0.13260218,-0.30314736,0.31823022,-0.06762425,0.00080131,0.00054436
 ,-0.00466257,0.00180512,0.00015459,0.00682844,-0.00073178,0.00105879,0
 .00894451,-0.00214605,0.00160136,0.00739955,0.00287946,-0.00296599,0.5
 7033643,0.00086678,-0.05767426,0.01806198,0.00170874,-0.00033132,-0.00
 147859,-0.00074714,0.02164995,0.00000142,-0.00357200,-0.00247839,-0.00
 163830,0.00430801,-0.00182584,-0.00246495,0.03533255,0.39897299,0.0006
 0977,0.01716698,-0.04807529,-0.00216816,-0.00005206,-0.00025693,0.0010
 2847,0.00028146,0.02065559,0.00288872,-0.00168279,-0.00264235,-0.00426
 011,-0.00242879,-0.00175063,-0.01253870,0.35202473,0.64174318,0.000760
 65,0.01163552,0.01911087,0.00059823,0.00004515,-0.00005662,0.00787827,
 -0.00255648,-0.00508526,-0.01227232,0.00410779,-0.00215248,-0.01075453
 ,-0.00389400,0.00534704,-0.24008946,0.10771801,0.17923626,0.19953012,0
 .00021519,0.00797978,-0.01056062,-0.00001955,0.00030764,0.00043678,-0.
 00139176,-0.00312923,0.00179955,0.00364569,-0.00058711,0.00066196,0.00
 178812,0.00154228,-0.00088675,0.10464665,-0.16606391,-0.18181761,-0.10
 927428,0.20103739,0.00205095,-0.01179703,-0.00186981,0.00063590,0.0003
 3735,0.00033411,-0.00356173,0.00196255,-0.00093131,0.00511389,-0.00172
 687,0.00172372,0.00575674,0.00209668,-0.00225990,0.17548542,-0.1827857
 1,-0.33000810,-0.18027517,0.26918059,0.42623374,-0.00082820,-0.0140198
 8,-0.01798285,-0.00048924,0.00140309,-0.00075064,0.00839905,0.00394743
 ,0.00343965,-0.01229836,0.00280834,-0.00373951,-0.01150724,-0.00544430
 ,0.00411200,-0.26729855,-0.14288910,-0.16835113,0.05403676,0.00442172,
 0.00088628,0.22821734,-0.00267829,0.00654221,-0.01221533,0.00397684,-0
 .00197409,0.00019743,0.00278640,-0.00259397,0.00191759,-0.00325558,0.0
 0163056,-0.00097093,-0.00457958,-0.00148280,0.00159790,-0.13973866,-0.
 19092891,-0.18097483,-0.00690425,-0.03876720,-0.07782728,0.14990725,0.
 22708083,-0.00098149,-0.01001624,0.00117331,0.00104652,-0.00042940,-0.
 00026918,0.00191407,0.00174603,-0.00198861,-0.00439199,0.00107553,-0.0
 0080268,-0.00287794,-0.00140367,0.00184669,-0.16454710,-0.18107897,-0.
 27792528,-0.01508398,-0.07949200,-0.09195823,0.18100643,0.26791065,0.3
 7151546,-0.01281721,0.00093514,-0.00609564,-0.00047884,-0.00058511,-0.
 00027793,-0.00504841,0.00300760,0.00058805,0.00086078,-0.00216336,0.00
 501418,0.00067232,-0.00105223,0.00044257,-0.00526284,0.00301501,0.0007
 2180,-0.00026182,-0.00132395,-0.00566653,0.00055351,-0.00091731,-0.000
 67922,0.01871030,-0.00011348,-0.01810940,0.00642064,-0.00028734,0.0005
 8679,-0.00518880,0.00026637,-0.00034306,0.00152606,-0.00004937,-0.0001
 8099,-0.00005856,-0.00012089,0.00031565,-0.00048200,0.00025780,-0.0001
 0010,-0.00153637,0.00026482,-0.00011696,0.00033992,-0.00001059,0.00018
 919,0.00049003,-0.00085550,0.01483300,-0.00618171,0.00634523,-0.089161
 10,0.00013283,-0.00264061,-0.00189135,0.00176299,-0.00040574,-0.000428
 76,0.00156197,0.00090467,-0.00238450,0.00014487,-0.00012076,0.00014397
 ,-0.00095715,-0.00005280,-0.00046317,-0.00189401,-0.00032873,-0.001317
 54,-0.00021313,0.00027824,0.00038851,0.00695666,-0.00812249,0.10567551
 ,-0.01288394,0.00059994,-0.00612800,-0.00055050,0.00063977,-0.00061245
 ,-0.00493590,-0.00349292,-0.00003331,0.00046519,0.00103986,-0.00044686
 ,-0.00042408,0.00227912,-0.00530244,-0.00471941,-0.00345504,0.00010992
 ,0.00057463,0.00098287,0.00059002,0.00071941,0.00129362,0.00528610,0.0
 0354477,0.00005714,-0.00110259,0.01866213,0.00164804,-0.01803459,0.006
 28562,0.00024359,-0.00081260,0.00535869,-0.00048720,-0.00070710,0.0015
 4983,0.00006361,0.00043015,-0.00054073,0.00001748,0.00004288,-0.000590
 08,-0.00096462,-0.00048710,-0.00147145,0.00012189,0.00029129,0.0005433
 7,-0.00014758,-0.00001079,0.00092524,0.00011726,0.00376051,0.00124247,
 -0.00001908,0.01493006,-0.00604134,0.00637952,-0.08919729,-0.00005117,
 0.00284555,-0.00038988,-0.00102590,-0.00005598,-0.00017019,-0.00018061
 ,-0.00029476,0.00023721,-0.00194980,0.00037740,-0.00133333,0.00160768,
 0.00056380,-0.00061576,0.00015503,0.00015385,0.00026687,0.00160520,-0.
 00034230,-0.00241168,-0.00109562,0.00124693,-0.01012462,0.00705578,-0.
 00817547,0.10568102,-0.01001730,0.00252162,0.00015471,0.00265959,0.000
 53195,0.00010599,-0.00418270,0.00143753,0.00310471,0.00049737,0.000032
 54,-0.00067595,-0.00047191,0.00399502,-0.00028880,-0.00385185,-0.00228
 582,0.00272315,-0.00000053,-0.00369069,-0.00101577,0.00049553,0.000109
 56,-0.00069140,-0.00047257,0.00059105,-0.00021072,-0.00045231,-0.00059
 338,-0.00007924,0.01579669,0.00260210,-0.06801000,-0.00500313,0.000541
 28,-0.00973394,-0.00115669,0.00172563,-0.00053892,-0.00025438,-0.00001
 531,0.00044436,-0.00032549,0.00128080,-0.00188911,-0.00007164,-0.00214
 177,-0.00073311,0.00049072,-0.00126416,-0.00249396,-0.00032358,0.00002
 362,0.00031497,0.00027281,-0.00017754,-0.00083463,0.00290053,0.0000747
 2,0.00059728,-0.00269856,-0.00264939,0.08287707,-0.00066854,-0.0050425
 2,-0.01452464,0.00000872,-0.00116141,0.00267094,0.00081931,0.00121459,
 -0.00051390,0.00002091,-0.00042783,0.00029646,0.00102801,-0.00111859,-
 0.00041756,0.00055674,-0.00115262,-0.00066124,0.00069831,0.00085296,-0
 .00021354,-0.00001229,0.00042888,0.00043169,0.00009169,0.00536464,-0.0
 0043696,0.00058381,-0.00512751,-0.00194234,-0.00312667,0.00616940,0.01
 531109\\-0.00003240,-0.00000200,0.00001998,0.00000642,-0.00003354,0.00
 001671,-0.00003532,0.00000182,-0.00001228,0.00003057,-0.00005449,0.000
 05057,0.00000168,0.00004719,-0.00004849,0.00002099,0.00000913,-0.00000
 756,-0.00000450,-0.00003150,-0.00005663,0.00001054,0.00003884,0.000056
 27,0.00000292,-0.00001615,0.00002054,0.00000571,0.00002093,-0.00002872
 ,-0.00000660,0.00001975,-0.00001040\\\@


 THE ONLY TROUBLE WITH A SURE THING IS THE UNCERTAINTY.
     -- FROM A TEABAG (BELONGING TO W.H.?)
 Job cpu time:       0 days  0 hours 18 minutes 23.4 seconds.
 File lengths (MBytes):  RWF=    134 Int=      0 D2E=      0 Chk=      8 Scr=      1
 Normal termination of Gaussian 09 at Wed Aug 18 07:35:04 2021.
