 Entering Gaussian System, Link 0=g09
 Input=estrutura41_D2O.com
 Output=estrutura41_D2O.log
 Initial command:
 /home/scr/programs/g09/l1.exe "/home/scr/diego/Gau-10021.inp" -scrdir="/home/scr/diego/"
 Entering Link 1 = /home/scr/programs/g09/l1.exe PID=     10023.
  
 Copyright (c) 1988,1990,1992,1993,1995,1998,2003,2009,2013,
            Gaussian, Inc.  All Rights Reserved.
  
 This is part of the Gaussian(R) 09 program.  It is based on
 the Gaussian(R) 03 system (copyright 2003, Gaussian, Inc.),
 the Gaussian(R) 98 system (copyright 1998, Gaussian, Inc.),
 the Gaussian(R) 94 system (copyright 1995, Gaussian, Inc.),
 the Gaussian 92(TM) system (copyright 1992, Gaussian, Inc.),
 the Gaussian 90(TM) system (copyright 1990, Gaussian, Inc.),
 the Gaussian 88(TM) system (copyright 1988, Gaussian, Inc.),
 the Gaussian 86(TM) system (copyright 1986, Carnegie Mellon
 University), and the Gaussian 82(TM) system (copyright 1983,
 Carnegie Mellon University). Gaussian is a federally registered
 trademark of Gaussian, Inc.
  
 This software contains proprietary and confidential information,
 including trade secrets, belonging to Gaussian, Inc.
  
 This software is provided under written license and may be
 used, copied, transmitted, or stored only in accord with that
 written license.
  
 The following legend is applicable only to US Government
 contracts under FAR:
  
                    RESTRICTED RIGHTS LEGEND
  
 Use, reproduction and disclosure by the US Government is
 subject to restrictions as set forth in subparagraphs (a)
 and (c) of the Commercial Computer Software - Restricted
 Rights clause in FAR 52.227-19.
  
 Gaussian, Inc.
 340 Quinnipiac St., Bldg. 40, Wallingford CT 06492
  
  
 ---------------------------------------------------------------
 Warning -- This program may not be used in any manner that
 competes with the business of Gaussian, Inc. or will provide
 assistance to any competitor of Gaussian, Inc.  The licensee
 of this program is prohibited from giving any competitor of
 Gaussian, Inc. access to this program.  By using this program,
 the user acknowledges that Gaussian, Inc. is engaged in the
 business of creating and licensing software in the field of
 computational chemistry and represents and warrants to the
 licensee that it is not a competitor of Gaussian, Inc. and that
 it will not use this program in any manner prohibited above.
 ---------------------------------------------------------------
  

 Cite this work as:
 Gaussian 09, Revision D.01,
 M. J. Frisch, G. W. Trucks, H. B. Schlegel, G. E. Scuseria, 
 M. A. Robb, J. R. Cheeseman, G. Scalmani, V. Barone, B. Mennucci, 
 G. A. Petersson, H. Nakatsuji, M. Caricato, X. Li, H. P. Hratchian, 
 A. F. Izmaylov, J. Bloino, G. Zheng, J. L. Sonnenberg, M. Hada, 
 M. Ehara, K. Toyota, R. Fukuda, J. Hasegawa, M. Ishida, T. Nakajima, 
 Y. Honda, O. Kitao, H. Nakai, T. Vreven, J. A. Montgomery, Jr., 
 J. E. Peralta, F. Ogliaro, M. Bearpark, J. J. Heyd, E. Brothers, 
 K. N. Kudin, V. N. Staroverov, T. Keith, R. Kobayashi, J. Normand, 
 K. Raghavachari, A. Rendell, J. C. Burant, S. S. Iyengar, J. Tomasi, 
 M. Cossi, N. Rega, J. M. Millam, M. Klene, J. E. Knox, J. B. Cross, 
 V. Bakken, C. Adamo, J. Jaramillo, R. Gomperts, R. E. Stratmann, 
 O. Yazyev, A. J. Austin, R. Cammi, C. Pomelli, J. W. Ochterski, 
 R. L. Martin, K. Morokuma, V. G. Zakrzewski, G. A. Voth, 
 P. Salvador, J. J. Dannenberg, S. Dapprich, A. D. Daniels, 
 O. Farkas, J. B. Foresman, J. V. Ortiz, J. Cioslowski, 
 and D. J. Fox, Gaussian, Inc., Wallingford CT, 2013.
 
 ******************************************
 Gaussian 09:  EM64L-G09RevD.01 24-Apr-2013
                18-Aug-2021 
 ******************************************
 %mem=15gb
 %nproc=8
 Will use up to    8 processors via shared memory.
 ------------------------------------------------------------
 #b3lyp/gen pseudo=read opt freq=noraman scrf=(solvent=water)
 ------------------------------------------------------------
 1/14=-1,18=20,19=15,26=3,38=1/1,3;
 2/9=110,12=2,17=6,18=5,40=1/2;
 3/5=7,11=2,16=1,17=8,25=1,30=1,70=2201,71=1,72=1,74=-5/1,2,3;
 4//1;
 5/5=2,38=5,53=1/2;
 6/7=2,8=2,9=2,10=2,28=1/1;
 7//1,2,3,16;
 1/14=-1,18=20,19=15,26=3/3(2);
 2/9=110/2;
 99//99;
 2/9=110/2;
 3/5=7,6=1,11=2,16=1,17=8,25=1,30=1,70=2205,71=1,72=1,74=-5,82=7/1,2,3;
 4/5=5,16=3,69=1/1;
 5/5=2,38=5,53=1/2;
 7//1,2,3,16;
 1/14=-1,18=20,19=15,26=3/3(-5);
 2/9=110/2;
 6/7=2,8=2,9=2,10=2,19=2,28=1/1;
 99/9=1/99;
 ------------
 Estrutura 41
 ------------
 Symbolic Z-matrix:
 Charge = -2 Multiplicity = 1
 Pt                   -0.31955   0.33835   0. 
 Cl                   -0.31955   0.33835  -2.28 
 N                    -0.31955  -1.65165   0. 
 N                    -0.31955   0.33835   1.99 
 O                     0.95213  -2.10499   0.1641 
 O                    -0.81328  -2.10499  -1.18335 
 O                     0.74918  -0.37012   2.44333 
 O                    -1.46746  -0.23297   2.44333 
 Cl                   -0.31955   2.61835   0. 
 Cl                    1.67045   0.33835   0. 
 Cl                   -2.30955   0.33835   0. 
 

 GradGradGradGradGradGradGradGradGradGradGradGradGradGradGradGradGradGrad
 Berny optimization.
 Initialization pass.
                           ----------------------------
                           !    Initial Parameters    !
                           ! (Angstroms and Degrees)  !
 --------------------------                            --------------------------
 ! Name  Definition              Value          Derivative Info.                !
 --------------------------------------------------------------------------------
 ! R1    R(1,2)                  2.28           estimate D2E/DX2                !
 ! R2    R(1,3)                  1.99           estimate D2E/DX2                !
 ! R3    R(1,4)                  1.99           estimate D2E/DX2                !
 ! R4    R(1,9)                  2.28           estimate D2E/DX2                !
 ! R5    R(1,10)                 1.99           estimate D2E/DX2                !
 ! R6    R(1,11)                 1.99           estimate D2E/DX2                !
 ! R7    R(3,5)                  1.36           estimate D2E/DX2                !
 ! R8    R(3,6)                  1.36           estimate D2E/DX2                !
 ! R9    R(4,7)                  1.36           estimate D2E/DX2                !
 ! R10   R(4,8)                  1.36           estimate D2E/DX2                !
 ! A1    A(2,1,3)               90.0            estimate D2E/DX2                !
 ! A2    A(2,1,9)               90.0            estimate D2E/DX2                !
 ! A3    A(2,1,10)              90.0            estimate D2E/DX2                !
 ! A4    A(2,1,11)              90.0            estimate D2E/DX2                !
 ! A5    A(3,1,4)               90.0            estimate D2E/DX2                !
 ! A6    A(3,1,10)              90.0            estimate D2E/DX2                !
 ! A7    A(3,1,11)              90.0            estimate D2E/DX2                !
 ! A8    A(4,1,9)               90.0            estimate D2E/DX2                !
 ! A9    A(4,1,10)              90.0            estimate D2E/DX2                !
 ! A10   A(4,1,11)              90.0            estimate D2E/DX2                !
 ! A11   A(9,1,10)              90.0            estimate D2E/DX2                !
 ! A12   A(9,1,11)              90.0            estimate D2E/DX2                !
 ! A13   A(1,3,5)              109.4712         estimate D2E/DX2                !
 ! A14   A(1,3,6)              109.4712         estimate D2E/DX2                !
 ! A15   A(5,3,6)              109.4713         estimate D2E/DX2                !
 ! A16   A(1,4,7)              109.4712         estimate D2E/DX2                !
 ! A17   A(1,4,8)              109.4712         estimate D2E/DX2                !
 ! A18   A(7,4,8)              109.4713         estimate D2E/DX2                !
 ! A19   L(2,1,4,3,-1)         180.0            estimate D2E/DX2                !
 ! A20   L(3,1,9,2,-1)         180.0            estimate D2E/DX2                !
 ! A21   L(10,1,11,2,-1)       180.0            estimate D2E/DX2                !
 ! A22   L(2,1,4,3,-2)         180.0            estimate D2E/DX2                !
 ! A23   L(3,1,9,2,-2)         180.0            estimate D2E/DX2                !
 ! A24   L(10,1,11,2,-2)       180.0            estimate D2E/DX2                !
 ! D1    D(2,1,3,5)             97.3528         estimate D2E/DX2                !
 ! D2    D(2,1,3,6)            -22.6472         estimate D2E/DX2                !
 ! D3    D(4,1,3,5)            -82.6472         estimate D2E/DX2                !
 ! D4    D(4,1,3,6)            157.3528         estimate D2E/DX2                !
 ! D5    D(10,1,3,5)             7.3528         estimate D2E/DX2                !
 ! D6    D(10,1,3,6)          -112.6472         estimate D2E/DX2                !
 ! D7    D(11,1,3,5)          -172.6472         estimate D2E/DX2                !
 ! D8    D(11,1,3,6)            67.3528         estimate D2E/DX2                !
 ! D9    D(3,1,4,7)             56.4594         estimate D2E/DX2                !
 ! D10   D(3,1,4,8)            -63.5406         estimate D2E/DX2                !
 ! D11   D(9,1,4,7)           -123.5406         estimate D2E/DX2                !
 ! D12   D(9,1,4,8)            116.4594         estimate D2E/DX2                !
 ! D13   D(10,1,4,7)           -33.5406         estimate D2E/DX2                !
 ! D14   D(10,1,4,8)          -153.5406         estimate D2E/DX2                !
 ! D15   D(11,1,4,7)           146.4594         estimate D2E/DX2                !
 ! D16   D(11,1,4,8)            26.4594         estimate D2E/DX2                !
 --------------------------------------------------------------------------------
 Trust Radius=3.00D-01 FncErr=1.00D-07 GrdErr=1.00D-06
 Number of steps in this run=     60 maximum allowed number of steps=    100.
 GradGradGradGradGradGradGradGradGradGradGradGradGradGradGradGradGradGrad

                          Input orientation:                          
 ---------------------------------------------------------------------
 Center     Atomic      Atomic             Coordinates (Angstroms)
 Number     Number       Type             X           Y           Z
 ---------------------------------------------------------------------
      1         78           0       -0.319549    0.338346    0.000000
      2         17           0       -0.319549    0.338346   -2.280000
      3          7           0       -0.319549   -1.651654    0.000000
      4          7           0       -0.319549    0.338346    1.990000
      5          8           0        0.952128   -2.104987    0.164097
      6          8           0       -0.813275   -2.104987   -1.183353
      7          8           0        0.749175   -0.370116    2.443333
      8          8           0       -1.467457   -0.232965    2.443333
      9         17           0       -0.319549    2.618346    0.000000
     10         17           0        1.670451    0.338346    0.000000
     11         17           0       -2.309549    0.338346    0.000000
 ---------------------------------------------------------------------
                    Distance matrix (angstroms):
                    1          2          3          4          5
     1  Pt   0.000000
     2  Cl   2.280000   0.000000
     3  N    1.990000   3.026301   0.000000
     4  N    1.990000   4.270000   2.814285   0.000000
     5  O    2.759341   3.682478   1.360000   3.304687   0.000000
     6  O    2.759341   2.723284   1.360000   4.035320   2.220871
     7  O    2.759341   4.894279   2.958781   1.360000   2.871565
     8  O    2.759341   4.894279   3.049631   1.360000   3.814941
     9  Cl   2.280000   3.224407   4.270000   3.026301   4.894279
    10  Cl   1.990000   3.026301   2.814285   2.814285   2.552017
    11  Cl   1.990000   3.026301   2.814285   2.814285   4.078644
                    6          7          8          9         10
     6  O    0.000000
     7  O    4.313221   0.000000
     8  O    4.133433   2.220871   0.000000
     9  Cl   4.894279   4.005365   3.926518   0.000000
    10  Cl   3.679551   2.705650   4.017803   3.026301   0.000000
    11  Cl   3.099844   3.978390   2.646770   3.026301   3.980000
                   11
    11  Cl   0.000000
 Stoichiometry    Cl4N2O4Pt(2-)
 Framework group  C1[X(Cl4N2O4Pt)]
 Deg. of freedom    27
 Full point group                 C1      NOp   1
 Largest Abelian subgroup         C1      NOp   1
 Largest concise Abelian subgroup C1      NOp   1
                         Standard orientation:                         
 ---------------------------------------------------------------------
 Center     Atomic      Atomic             Coordinates (Angstroms)
 Number     Number       Type             X           Y           Z
 ---------------------------------------------------------------------
      1         78           0        0.103075   -0.086138   -0.010035
      2         17           0        1.929990    1.272274   -0.134528
      3          7           0       -1.010721    1.463492    0.554060
      4          7           0       -1.491469   -1.271770    0.098623
      5          8           0       -1.664777    1.968717   -0.526013
      6          8           0       -0.211878    2.424488    1.090658
      7          8           0       -2.477173   -0.780094   -0.699025
      8          8           0       -1.931801   -1.322627    1.384360
      9         17           0        1.379183   -1.861594   -0.656336
     10         17           0       -0.317623    0.305044   -1.915315
     11         17           0        0.523773   -0.477320    1.895244
 ---------------------------------------------------------------------
 Rotational constants (GHZ):      0.6540269      0.6347757      0.5634319
 General basis read from cards:  (5D, 7F)
 ======================================================================================================
                                       Pseudopotential Parameters
 ======================================================================================================
  Center     Atomic      Valence      Angular      Power
  Number     Number     Electrons     Momentum     of R      Exponent        Coefficient   SO-Coeffient
 ======================================================================================================
    1         78           18
                                      G and up 
                                                     1      728.9394056       -0.16192680    0.00000000
                                                     2      320.6567800    -1320.28738520    0.00000000
                                                     2       52.8680174     -298.31781350    0.00000000
                                                     2       12.0280128      -87.58370650    0.00000000
                                                     2        3.5238913       -8.14932740    0.00000000
                                      S - G
                                                     0      409.4437358        2.73342180    0.00000000
                                                     1      274.5419231       59.70243290    0.00000000
                                                     2      127.5658570      891.45895500    0.00000000
                                                     2       32.9036631      368.44676560    0.00000000
                                                     2        5.0593880      238.02630900    0.00000000
                                                     2        4.1506556     -107.05564540    0.00000000
                                      P - G
                                                     0      466.1728892        1.88785680    0.00000000
                                                     1      120.7888259       76.01386290    0.00000000
                                                     2       36.4118791      343.55111160    0.00000000
                                                     2        5.6985408      119.49117860    0.00000000
                                      D - G
                                                     0      249.5650763        2.93436780    0.00000000
                                                     1      126.6678585       59.33065710    0.00000000
                                                     2       63.1430586      452.44451940    0.00000000
                                                     2       17.9059470      210.47694790    0.00000000
                                                     2        4.2239373       58.62541120    0.00000000
                                      F - G
                                                     0      121.8158799        3.95342530    0.00000000
                                                     1       60.8757030       53.85551820    0.00000000
                                                     2       31.4767147      247.43051330    0.00000000
                                                     2        9.8811751      127.81879760    0.00000000
                                                     2        2.7319874       15.37720460    0.00000000
    2         17
                                   No pseudopotential on this center.
    3          7
                                   No pseudopotential on this center.
    4          7
                                   No pseudopotential on this center.
    5          8
                                   No pseudopotential on this center.
    6          8
                                   No pseudopotential on this center.
    7          8
                                   No pseudopotential on this center.
    8          8
                                   No pseudopotential on this center.
    9         17
                                   No pseudopotential on this center.
   10         17
                                   No pseudopotential on this center.
   11         17
                                   No pseudopotential on this center.
 ======================================================================================================
 There are   190 symmetry adapted cartesian basis functions of A   symmetry.
 There are   178 symmetry adapted basis functions of A   symmetry.
   178 basis functions,   341 primitive gaussians,   190 cartesian basis functions
    67 alpha electrons       67 beta electrons
       nuclear repulsion energy      1449.9969323190 Hartrees.
 NAtoms=   11 NActive=   11 NUniq=   11 SFac= 1.00D+00 NAtFMM=   60 NAOKFM=F Big=F
 Integral buffers will be    131072 words long.
 Raffenetti 2 integral format.
 Two-electron integral symmetry is turned on.
 ------------------------------------------------------------------------------
 Polarizable Continuum Model (PCM)
 =================================
 Model                : PCM (using non-symmetric T matrix).
 Atomic radii         : UFF (Universal Force Field).
 Polarization charges : Total charges.
 Charge compensation  : None.
 Solution method      : On-the-fly selection.
 Cavity type          : Scaled VdW (van der Waals Surface) (Alpha=1.100).
 Cavity algorithm     : GePol (No added spheres)
                        Default sphere list used, NSphG=   11.
                        Lebedev-Laikov grids with approx.  5.0 points / Ang**2.
                        Smoothing algorithm: Karplus/York (Gamma=1.0000).
                        Polarization charges: spherical gaussians, with
                                              point-specific exponents (IZeta= 3).
                        Self-potential: point-specific (ISelfS= 7).
                        Self-field    : sphere-specific E.n sum rule (ISelfD= 2).
 1st derivatives      : Analytical E(r).r(x)/FMM algorithm (CHGder, D1EAlg=3).
                        Cavity 1st derivative terms included.
 Solvent              : Water, Eps=  78.355300 Eps(inf)=   1.777849
 ------------------------------------------------------------------------------
 Spheres list:
 ISph  on   Nord     Re0    Alpha      Xe            Ye            Ze
    1  Pt      1    1.3770  1.100      0.103075     -0.086138     -0.010035
    2  Cl      2    1.9735  1.100      1.929990      1.272274     -0.134528
    3   N      3    1.8300  1.100     -1.010721      1.463492      0.554060
    4   N      4    1.8300  1.100     -1.491469     -1.271770      0.098623
    5   O      5    1.7500  1.100     -1.664777      1.968717     -0.526013
    6   O      6    1.7500  1.100     -0.211878      2.424488      1.090658
    7   O      7    1.7500  1.100     -2.477173     -0.780094     -0.699025
    8   O      8    1.7500  1.100     -1.931801     -1.322627      1.384360
    9  Cl      9    1.9735  1.100      1.379183     -1.861594     -0.656336
   10  Cl     10    1.9735  1.100     -0.317623      0.305044     -1.915315
   11  Cl     11    1.9735  1.100      0.523773     -0.477320      1.895244
 ------------------------------------------------------------------------------
 One-electron integrals computed using PRISM.
   1 Symmetry operations used in ECPInt.
 ECPInt:  NShTT=    2926 NPrTT=   13061 LenC2=    2780 LenP2D=    8937.
 LDataN:  DoStor=T MaxTD1= 6 Len=  172
 NBasis=   178 RedAO= T EigKep=  3.03D-03  NBF=   178
 NBsUse=   178 1.00D-06 EigRej= -1.00D+00 NBFU=   178
 Defaulting to unpruned grid for atomic number  78.
 ExpMin= 2.90D-02 ExpMax= 1.04D+04 ExpMxC= 1.57D+03 IAcc=3 IRadAn=         5 AccDes= 0.00D+00
 Harris functional with IExCor=  402 and IRadAn=       5 diagonalized for initial guess.
 HarFok:  IExCor=  402 AccDes= 0.00D+00 IRadAn=         5 IDoV= 1 UseB2=F ITyADJ=14
 ICtDFT=  3500011 ScaDFX=  1.000000  1.000000  1.000000  1.000000
 Defaulting to unpruned grid for atomic number  78.
 Defaulting to unpruned grid for atomic number  78.
 Defaulting to unpruned grid for atomic number  78.
 Defaulting to unpruned grid for atomic number  78.
 Defaulting to unpruned grid for atomic number  78.
 Defaulting to unpruned grid for atomic number  78.
 Defaulting to unpruned grid for atomic number  78.
 Defaulting to unpruned grid for atomic number  78.
 FoFCou: FMM=F IPFlag=           0 FMFlag=      100000 FMFlg1=           0
         NFxFlg=           0 DoJE=T BraDBF=F KetDBF=T FulRan=T
         wScrn=  0.000000 ICntrl=     500 IOpCl=  0 I1Cent=   200000004 NGrid=           0
         NMat0=    1 NMatS0=      1 NMatT0=    0 NMatD0=    1 NMtDS0=    0 NMtDT0=    0
 Petite list used in FoFCou.
 Keep R1 ints in memory in canonical form, NReq=132190316.
 Requested convergence on RMS density matrix=1.00D-08 within 128 cycles.
 Requested convergence on MAX density matrix=1.00D-06.
 Requested convergence on             energy=1.00D-06.
 No special actions if energy rises.
 Defaulting to unpruned grid for atomic number  78.
 Defaulting to unpruned grid for atomic number  78.
 Defaulting to unpruned grid for atomic number  78.
 Defaulting to unpruned grid for atomic number  78.
 Defaulting to unpruned grid for atomic number  78.
 Defaulting to unpruned grid for atomic number  78.
 Defaulting to unpruned grid for atomic number  78.
 Defaulting to unpruned grid for atomic number  78.
 Inv3:  Mode=1 IEnd=     5451312.
 Iteration    1 A*A^-1 deviation from unit magnitude is 5.22D-15 for    639.
 Iteration    1 A*A^-1 deviation from orthogonality  is 7.29D-15 for   1012    709.
 Iteration    1 A^-1*A deviation from unit magnitude is 6.11D-15 for    967.
 Iteration    1 A^-1*A deviation from orthogonality  is 4.57D-12 for    554    551.
 EnCoef did   100 forward-backward iterations
 EnCoef did     3 forward-backward iterations
 EnCoef did     2 forward-backward iterations
 EnCoef did     4 forward-backward iterations
 Error on total polarization charges =  0.01137
 SCF Done:  E(RB3LYP) =  -2369.43990717     A.U. after   24 cycles
            NFock= 24  Conv=0.45D-08     -V/T= 2.0380

 **********************************************************************

            Population analysis using the SCF density.

 **********************************************************************

 Orbital symmetries:
       Occupied  (A) (A) (A) (A) (A) (A) (A) (A) (A) (A) (A) (A)
                 (A) (A) (A) (A) (A) (A) (A) (A) (A) (A) (A) (A)
                 (A) (A) (A) (A) (A) (A) (A) (A) (A) (A) (A) (A)
                 (A) (A) (A) (A) (A) (A) (A) (A) (A) (A) (A) (A)
                 (A) (A) (A) (A) (A) (A) (A) (A) (A) (A) (A) (A)
                 (A) (A) (A) (A) (A) (A) (A)
       Virtual   (A) (A) (A) (A) (A) (A) (A) (A) (A) (A) (A) (A)
                 (A) (A) (A) (A) (A) (A) (A) (A) (A) (A) (A) (A)
                 (A) (A) (A) (A) (A) (A) (A) (A) (A) (A) (A) (A)
                 (A) (A) (A) (A) (A) (A) (A) (A) (A) (A) (A) (A)
                 (A) (A) (A) (A) (A) (A) (A) (A) (A) (A) (A) (A)
                 (A) (A) (A) (A) (A) (A) (A) (A) (A) (A) (A) (A)
                 (A) (A) (A) (A) (A) (A) (A) (A) (A) (A) (A) (A)
                 (A) (A) (A) (A) (A) (A) (A) (A) (A) (A) (A) (A)
                 (A) (A) (A) (A) (A) (A) (A) (A) (A) (A) (A) (A)
                 (A) (A) (A)
 The electronic state is 1-A.
 Alpha  occ. eigenvalues -- -101.45126-101.45100-101.42809-101.42508 -19.14210
 Alpha  occ. eigenvalues --  -19.13989 -19.13335 -19.13088 -14.49385 -14.47978
 Alpha  occ. eigenvalues --   -9.40549  -9.40509  -9.38966  -9.38691  -7.17353
 Alpha  occ. eigenvalues --   -7.17339  -7.16500  -7.16493  -7.16453  -7.16432
 Alpha  occ. eigenvalues --   -7.15721  -7.15440  -7.14870  -7.14795  -7.14588
 Alpha  occ. eigenvalues --   -7.14521  -4.03842  -2.26713  -2.25196  -2.25156
 Alpha  occ. eigenvalues --   -1.09129  -1.08007  -0.93038  -0.92035  -0.82328
 Alpha  occ. eigenvalues --   -0.76948  -0.76214  -0.75841  -0.65148  -0.64428
 Alpha  occ. eigenvalues --   -0.50308  -0.49541  -0.47927  -0.47650  -0.47270
 Alpha  occ. eigenvalues --   -0.45648  -0.43819  -0.43420  -0.41624  -0.38451
 Alpha  occ. eigenvalues --   -0.37969  -0.36512  -0.31921  -0.28900  -0.27608
 Alpha  occ. eigenvalues --   -0.27352  -0.27220  -0.27150  -0.26598  -0.26452
 Alpha  occ. eigenvalues --   -0.25806  -0.25368  -0.25183  -0.24163  -0.23902
 Alpha  occ. eigenvalues --   -0.20761  -0.19993
 Alpha virt. eigenvalues --   -0.13063  -0.11313  -0.02585  -0.00212   0.05740
 Alpha virt. eigenvalues --    0.05975   0.06156   0.19768   0.19855   0.20555
 Alpha virt. eigenvalues --    0.20621   0.21409   0.30932   0.31632   0.34437
 Alpha virt. eigenvalues --    0.42390   0.44094   0.47660   0.49359   0.51961
 Alpha virt. eigenvalues --    0.59722   0.63001   0.66941   0.69397   0.71600
 Alpha virt. eigenvalues --    0.72714   0.74311   0.74962   0.76183   0.76566
 Alpha virt. eigenvalues --    0.78015   0.78167   0.78317   0.79133   0.79349
 Alpha virt. eigenvalues --    0.79698   0.80608   0.80793   0.81343   0.82139
 Alpha virt. eigenvalues --    0.82705   0.83774   0.84844   0.85058   0.87635
 Alpha virt. eigenvalues --    0.90065   0.91125   0.92159   0.94897   0.96729
 Alpha virt. eigenvalues --    0.96855   0.97577   0.98515   1.02054   1.03238
 Alpha virt. eigenvalues --    1.03316   1.07840   1.09251   1.09590   1.10809
 Alpha virt. eigenvalues --    1.13054   1.16603   1.17417   1.20019   1.20326
 Alpha virt. eigenvalues --    1.21861   1.23946   1.26510   1.28461   1.29957
 Alpha virt. eigenvalues --    1.31633   1.35249   1.39637   1.43627   1.45420
 Alpha virt. eigenvalues --    1.47525   1.48737   1.50268   1.56077   1.61865
 Alpha virt. eigenvalues --    1.91690   1.95730   2.03190   2.06841   2.09703
 Alpha virt. eigenvalues --    2.12251   2.30696   2.33331   2.35228   2.36094
 Alpha virt. eigenvalues --    2.65245   2.66612   2.67449   2.67951   2.68938
 Alpha virt. eigenvalues --    2.69619   2.71777   2.72243   2.76646   2.77313
 Alpha virt. eigenvalues --    2.97482   3.00384   3.01496   3.02947   3.22908
 Alpha virt. eigenvalues --    3.24218   3.49786   3.52164   3.67557   3.72214
 Alpha virt. eigenvalues --    6.41596
          Condensed to atoms (all electrons):
               1          2          3          4          5          6
     1  Pt  17.528224   0.234839  -0.001680  -0.036984  -0.006959  -0.009634
     2  Cl   0.234839  16.979202  -0.011673  -0.003285   0.000650  -0.020101
     3  N   -0.001680  -0.011673   6.764364  -0.017239   0.183079   0.174067
     4  N   -0.036984  -0.003285  -0.017239   6.772623  -0.001340   0.000325
     5  O   -0.006959   0.000650   0.183079  -0.001340   8.226216  -0.091865
     6  O   -0.009634  -0.020101   0.174067   0.000325  -0.091865   8.238593
     7  O   -0.011476   0.000035  -0.003974   0.188848   0.003637   0.000033
     8  O   -0.001042   0.000037  -0.002781   0.180123   0.000109  -0.000004
     9  Cl   0.232591  -0.015466  -0.003529  -0.010781   0.000043   0.000043
    10  Cl  -0.038576  -0.016544  -0.041346  -0.040365  -0.036498   0.000990
    11  Cl  -0.052431  -0.014022  -0.046363  -0.042897   0.000811  -0.002230
               7          8          9         10         11
     1  Pt  -0.011476  -0.001042   0.232591  -0.038576  -0.052431
     2  Cl   0.000035   0.000037  -0.015466  -0.016544  -0.014022
     3  N   -0.003974  -0.002781  -0.003529  -0.041346  -0.046363
     4  N    0.188848   0.180123  -0.010781  -0.040365  -0.042897
     5  O    0.003637   0.000109   0.000043  -0.036498   0.000811
     6  O    0.000033  -0.000004   0.000043   0.000990  -0.002230
     7  O    8.205289  -0.095808   0.000168  -0.025805   0.000718
     8  O   -0.095808   8.230057   0.000159   0.000628  -0.035906
     9  Cl   0.000168   0.000159  17.007572  -0.025368  -0.012376
    10  Cl  -0.025805   0.000628  -0.025368  17.606164  -0.016265
    11  Cl   0.000718  -0.035906  -0.012376  -0.016265  17.623048
 Mulliken charges:
               1
     1  Pt   0.163128
     2  Cl  -0.133673
     3  N    0.007074
     4  N    0.010970
     5  O   -0.277885
     6  O   -0.290219
     7  O   -0.261665
     8  O   -0.275572
     9  Cl  -0.173056
    10  Cl  -0.367015
    11  Cl  -0.402087
 Sum of Mulliken charges =  -2.00000
 Mulliken charges with hydrogens summed into heavy atoms:
               1
     1  Pt   0.163128
     2  Cl  -0.133673
     3  N    0.007074
     4  N    0.010970
     5  O   -0.277885
     6  O   -0.290219
     7  O   -0.261665
     8  O   -0.275572
     9  Cl  -0.173056
    10  Cl  -0.367015
    11  Cl  -0.402087
 Electronic spatial extent (au):  <R**2>=           2465.0431
 Charge=             -2.0000 electrons
 Dipole moment (field-independent basis, Debye):
    X=              1.9242    Y=             -2.2130    Z=             -0.3729  Tot=              2.9562
 Quadrupole moment (field-independent basis, Debye-Ang):
   XX=           -137.5689   YY=           -135.4781   ZZ=           -132.2360
   XY=              0.8981   XZ=             -1.6110   YZ=              1.0124
 Traceless Quadrupole moment (field-independent basis, Debye-Ang):
   XX=             -2.4746   YY=             -0.3837   ZZ=              2.8583
   XY=              0.8981   XZ=             -1.6110   YZ=              1.0124
 Octapole moment (field-independent basis, Debye-Ang**2):
  XXX=             27.6102  YYY=            -33.4449  ZZZ=             -3.8072  XYY=              5.6179
  XXY=              3.8519  XXZ=              3.7342  XZZ=              4.8632  YZZ=              0.6305
  YYZ=             -7.7162  XYZ=             -8.1121
 Hexadecapole moment (field-independent basis, Debye-Ang**3):
 XXXX=          -1248.7282 YYYY=          -1185.2825 ZZZZ=           -929.5151 XXXY=            -18.3652
 XXXZ=             -5.4035 YYYX=             32.6725 YYYZ=            -16.3077 ZZZX=             -1.1684
 ZZZY=              6.5995 XXYY=           -405.4452 XXZZ=           -358.0401 YYZZ=           -352.2812
 XXYZ=             13.3425 YYXZ=              3.1811 ZZXY=             -7.4327
 N-N= 1.449996932319D+03 E-N=-8.532327672621D+03  KE= 2.282684688270D+03
   1 Symmetry operations used in ECPInt.
 ECPInt:  NShTT=    2926 NPrTT=   13061 LenC2=    2780 LenP2D=    8937.
 LDataN:  DoStor=T MaxTD1= 7 Len=  274
 D1PCM: PCM CHGder 1st derivatives, ID1Alg=3 FixD1E=F DoIter=F DoCFld=F I1PDM=0.
 Calling FoFJK, ICntrl=      2127 FMM=F ISym2X=0 I1Cent= 0 IOpClX= 0 NMat=1 NMatS=1 NMatT=0.
 Defaulting to unpruned grid for atomic number  78.
 Defaulting to unpruned grid for atomic number  78.
 Defaulting to unpruned grid for atomic number  78.
 Defaulting to unpruned grid for atomic number  78.
 Defaulting to unpruned grid for atomic number  78.
 Defaulting to unpruned grid for atomic number  78.
 Defaulting to unpruned grid for atomic number  78.
 Defaulting to unpruned grid for atomic number  78.
 ***** Axes restored to original set *****
 -------------------------------------------------------------------
 Center     Atomic                   Forces (Hartrees/Bohr)
 Number     Number              X              Y              Z
 -------------------------------------------------------------------
      1       78          -0.014887098    0.026688524   -0.002149734
      2       17           0.002390821    0.004512810   -0.046674470
      3        7           0.106395091   -0.105793118   -0.133628062
      4        7          -0.009068717   -0.178806664    0.113759035
      5        8          -0.097586123    0.010491973    0.023977719
      6        8           0.000387169    0.018144311    0.098475882
      7        8          -0.066004839    0.078903982   -0.014726869
      8        8           0.073809042    0.069723861   -0.010198743
      9       17           0.001031888    0.050079938   -0.001857111
     10       17           0.255616428    0.019050465   -0.013316694
     11       17          -0.252083661    0.007003919   -0.013660951
 -------------------------------------------------------------------
 Cartesian Forces:  Max     0.255616428 RMS     0.089125163

 GradGradGradGradGradGradGradGradGradGradGradGradGradGradGradGradGradGrad
 Berny optimization.
 FormGI is forming the generalized inverse of G from B-inverse, IUseBI=4.
 Internal  Forces:  Max     0.255620886 RMS     0.063497614
 Search for a local minimum.
 Step number   1 out of a maximum of   60
 All quantities printed in internal units (Hartrees-Bohrs-Radians)
 Mixed Optimization -- RFO/linear search
 Second derivative matrix not updated -- first step.
 ITU=  0
     Eigenvalues ---    0.00230   0.00230   0.04734   0.04734   0.08487
     Eigenvalues ---    0.08487   0.08931   0.08931   0.12615   0.12615
     Eigenvalues ---    0.16743   0.16743   0.20378   0.20378   0.22001
     Eigenvalues ---    0.22001   0.25000   0.25000   0.25000   0.25000
     Eigenvalues ---    0.25000   0.52948   0.52948   0.52948   0.52948
     Eigenvalues ---    0.57823   0.57823
 RFO step:  Lambda=-2.79946092D-01 EMin= 2.30000000D-03
 Linear search not attempted -- first point.
 Maximum step size (   0.300) exceeded in Quadratic search.
    -- Step size scaled by   0.501
 Iteration  1 RMS(Cart)=  0.06539808 RMS(Int)=  0.00170288
 Iteration  2 RMS(Cart)=  0.00174217 RMS(Int)=  0.00085387
 Iteration  3 RMS(Cart)=  0.00000451 RMS(Int)=  0.00085386
 Iteration  4 RMS(Cart)=  0.00000001 RMS(Int)=  0.00085386
 Variable       Old X    -DE/DX   Delta X   Delta X   Delta X     New X
                                 (Linear)    (Quad)   (Total)
    R1        4.30858   0.04669   0.00000   0.04675   0.04675   4.35532
    R2        3.76056   0.07723   0.00000   0.07991   0.07991   3.84047
    R3        3.76056   0.08882   0.00000   0.09190   0.09190   3.85246
    R4        4.30858   0.05007   0.00000   0.05013   0.05013   4.35870
    R5        3.76056   0.25562   0.00000   0.14909   0.14909   3.90965
    R6        3.76056   0.25208   0.00000   0.14702   0.14702   3.90758
    R7        2.57003  -0.09184   0.00000  -0.05679  -0.05679   2.51324
    R8        2.57003  -0.09192   0.00000  -0.05684  -0.05684   2.51319
    R9        2.57003  -0.09794   0.00000  -0.06056  -0.06056   2.50946
   R10        2.57003  -0.09500   0.00000  -0.05874  -0.05874   2.51128
    A1        1.57080   0.01140   0.00000   0.01153   0.01153   1.58232
    A2        1.57080  -0.00687   0.00000  -0.00595  -0.00594   1.56486
    A3        1.57080  -0.01009   0.00000  -0.01370  -0.01379   1.55700
    A4        1.57080  -0.00685   0.00000  -0.00925  -0.00925   1.56155
    A5        1.57080  -0.01063   0.00000  -0.01058  -0.01057   1.56023
    A6        1.57080   0.01863   0.00000   0.02353   0.02362   1.59442
    A7        1.57080  -0.00232   0.00000  -0.00142  -0.00132   1.56948
    A8        1.57080   0.00610   0.00000   0.00500   0.00501   1.57581
    A9        1.57080   0.00683   0.00000   0.00923   0.00931   1.58010
   A10        1.57080   0.01011   0.00000   0.01372   0.01371   1.58451
   A11        1.57080  -0.01268   0.00000  -0.01536  -0.01538   1.55541
   A12        1.57080  -0.00364   0.00000  -0.00676  -0.00679   1.56400
   A13        1.91063   0.05268   0.00000   0.05717   0.05543   1.96606
   A14        1.91063   0.03203   0.00000   0.03767   0.03590   1.94653
   A15        1.91063  -0.00435   0.00000   0.01071   0.00768   1.91832
   A16        1.91063   0.04222   0.00000   0.04643   0.04465   1.95528
   A17        1.91063   0.05178   0.00000   0.05546   0.05369   1.96433
   A18        1.91063  -0.01338   0.00000   0.00047  -0.00260   1.90803
   A19        3.14159   0.00077   0.00000   0.00095   0.00096   3.14255
   A20        3.14159   0.00453   0.00000   0.00558   0.00559   3.14718
   A21        3.14159  -0.01693   0.00000  -0.02295  -0.02304   3.11855
   A22        3.14159  -0.00326   0.00000  -0.00447  -0.00447   3.13713
   A23        3.14159  -0.00596   0.00000  -0.00817  -0.00816   3.13343
   A24        3.14159   0.01632   0.00000   0.02212   0.02204   3.16363
    D1        1.69913   0.02129   0.00000   0.03272   0.03334   1.73247
    D2       -0.39527  -0.02526   0.00000  -0.03847  -0.03900  -0.43427
    D3       -1.44247   0.02454   0.00000   0.03719   0.03780  -1.40466
    D4        2.74632  -0.02201   0.00000  -0.03400  -0.03453   2.71179
    D5        0.12833   0.03137   0.00000   0.04642   0.04686   0.17520
    D6       -1.96606  -0.01518   0.00000  -0.02477  -0.02547  -1.99154
    D7       -3.01326   0.01444   0.00000   0.02347   0.02408  -2.98919
    D8        1.17553  -0.03211   0.00000  -0.04773  -0.04826   1.12727
    D9        0.98540   0.02723   0.00000   0.03962   0.04021   1.02562
   D10       -1.10899  -0.01394   0.00000  -0.02335  -0.02392  -1.13291
   D11       -2.15619   0.02128   0.00000   0.03145   0.03203  -2.12416
   D12        2.03260  -0.01990   0.00000  -0.03153  -0.03211   2.00049
   D13       -0.58539   0.00860   0.00000   0.01609   0.01669  -0.56870
   D14       -2.67979  -0.03258   0.00000  -0.04688  -0.04744  -2.72723
   D15        2.55620   0.02491   0.00000   0.03820   0.03875   2.59495
   D16        0.46180  -0.01626   0.00000  -0.02477  -0.02538   0.43642
         Item               Value     Threshold  Converged?
 Maximum Force            0.255621     0.000450     NO 
 RMS     Force            0.063498     0.000300     NO 
 Maximum Displacement     0.170205     0.001800     NO 
 RMS     Displacement     0.064733     0.001200     NO 
 Predicted change in Energy=-1.203591D-01
 GradGradGradGradGradGradGradGradGradGradGradGradGradGradGradGradGradGrad

                          Input orientation:                          
 ---------------------------------------------------------------------
 Center     Atomic      Atomic             Coordinates (Angstroms)
 Number     Number       Type             X           Y           Z
 ---------------------------------------------------------------------
      1         78           0       -0.313700    0.347989   -0.020373
      2         17           0       -0.298531    0.393981   -2.324603
      3          7           0       -0.308697   -1.684220   -0.037475
      4          7           0       -0.318021    0.309285    2.017888
      5          8           0        0.902622   -2.195056    0.163808
      6          8           0       -0.820586   -2.164016   -1.167279
      7          8           0        0.735052   -0.335844    2.506047
      8          8           0       -1.429338   -0.223429    2.515081
      9         17           0       -0.338287    2.654159    0.011798
     10         17           0        1.754442    0.402063   -0.034219
     11         17           0       -2.381227    0.340453   -0.053263
 ---------------------------------------------------------------------
                    Distance matrix (angstroms):
                    1          2          3          4          5
     1  Pt   0.000000
     2  Cl   2.304738   0.000000
     3  N    2.032287   3.090303   0.000000
     4  N    2.038633   4.343360   2.863331   0.000000
     5  O    2.824967   3.786564   1.329948   3.346536   0.000000
     6  O    2.807579   2.855747   1.329922   4.063875   2.177659
     7  O    2.819629   4.993608   3.062194   1.327951   2.995134
     8  O    2.828373   5.008239   3.147267   1.328914   3.854067
     9  Cl   2.306526   3.250962   4.338760   3.085975   5.007779
    10  Cl   2.068895   3.075812   2.934132   2.918022   2.740409
    11  Cl   2.067802   3.082121   2.897400   2.923603   4.154466
                    6          7          8          9         10
     6  O    0.000000
     7  O    4.388114   0.000000
     8  O    4.206689   2.167326   0.000000
     9  Cl   4.983739   4.038992   3.967031   0.000000
    10  Cl   3.807802   2.834893   4.126333   3.074666   0.000000
    11  Cl   3.154203   4.088843   2.796506   3.087244   4.136172
                   11
    11  Cl   0.000000
 Stoichiometry    Cl4N2O4Pt(2-)
 Framework group  C1[X(Cl4N2O4Pt)]
 Deg. of freedom    27
 Full point group                 C1      NOp   1
 Largest Abelian subgroup         C1      NOp   1
 Largest concise Abelian subgroup C1      NOp   1
                         Standard orientation:                         
 ---------------------------------------------------------------------
 Center     Atomic      Atomic             Coordinates (Angstroms)
 Number     Number       Type             X           Y           Z
 ---------------------------------------------------------------------
      1         78           0        0.108311   -0.079358   -0.008386
      2         17           0        1.969619    1.271398   -0.159416
      3          7           0       -1.040889    1.520241    0.492424
      4          7           0       -1.538768   -1.274223    0.115922
      5          8           0       -1.726204    2.001932   -0.540571
      6          8           0       -0.315699    2.488041    1.045737
      7          8           0       -2.499285   -0.886448   -0.715037
      8          8           0       -2.026423   -1.343010    1.350212
      9         17           0        1.405887   -1.905440   -0.557733
     10         17           0       -0.247035    0.233803   -2.022334
     11         17           0        0.527425   -0.400719    1.990833
 ---------------------------------------------------------------------
 Rotational constants (GHZ):      0.6252364      0.6027544      0.5412061
 Basis read from rwf:  (5D, 7F)
 Pseudo-potential data read from rwf file.
 There are   190 symmetry adapted cartesian basis functions of A   symmetry.
 There are   178 symmetry adapted basis functions of A   symmetry.
   178 basis functions,   341 primitive gaussians,   190 cartesian basis functions
    67 alpha electrons       67 beta electrons
       nuclear repulsion energy      1419.1262178889 Hartrees.
 NAtoms=   11 NActive=   11 NUniq=   11 SFac= 1.00D+00 NAtFMM=   60 NAOKFM=F Big=F
 Integral buffers will be    131072 words long.
 Raffenetti 2 integral format.
 Two-electron integral symmetry is turned on.
 ------------------------------------------------------------------------------
 Polarizable Continuum Model (PCM)
 =================================
 Model                : PCM (using non-symmetric T matrix).
 Atomic radii         : UFF (Universal Force Field).
 Polarization charges : Total charges.
 Charge compensation  : None.
 Solution method      : On-the-fly selection.
 Cavity type          : Scaled VdW (van der Waals Surface) (Alpha=1.100).
 Cavity algorithm     : GePol (No added spheres)
                        Default sphere list used, NSphG=   11.
                        Lebedev-Laikov grids with approx.  5.0 points / Ang**2.
                        Smoothing algorithm: Karplus/York (Gamma=1.0000).
                        Polarization charges: spherical gaussians, with
                                              point-specific exponents (IZeta= 3).
                        Self-potential: point-specific (ISelfS= 7).
                        Self-field    : sphere-specific E.n sum rule (ISelfD= 2).
 1st derivatives      : Analytical E(r).r(x)/FMM algorithm (CHGder, D1EAlg=3).
                        Cavity 1st derivative terms included.
 Solvent              : Water, Eps=  78.355300 Eps(inf)=   1.777849
 ------------------------------------------------------------------------------
 Spheres list:
 ISph  on   Nord     Re0    Alpha      Xe            Ye            Ze
    1  Pt      1    1.3770  1.100      0.108311     -0.079358     -0.008386
    2  Cl      2    1.9735  1.100      1.969619      1.271398     -0.159416
    3   N      3    1.8300  1.100     -1.040889      1.520241      0.492424
    4   N      4    1.8300  1.100     -1.538768     -1.274223      0.115922
    5   O      5    1.7500  1.100     -1.726204      2.001932     -0.540571
    6   O      6    1.7500  1.100     -0.315699      2.488041      1.045737
    7   O      7    1.7500  1.100     -2.499285     -0.886448     -0.715037
    8   O      8    1.7500  1.100     -2.026423     -1.343010      1.350212
    9  Cl      9    1.9735  1.100      1.405887     -1.905440     -0.557733
   10  Cl     10    1.9735  1.100     -0.247035      0.233803     -2.022334
   11  Cl     11    1.9735  1.100      0.527425     -0.400719      1.990833
 ------------------------------------------------------------------------------
 One-electron integrals computed using PRISM.
   1 Symmetry operations used in ECPInt.
 ECPInt:  NShTT=    2926 NPrTT=   13061 LenC2=    2778 LenP2D=    8893.
 LDataN:  DoStor=T MaxTD1= 6 Len=  172
 NBasis=   178 RedAO= T EigKep=  3.55D-03  NBF=   178
 NBsUse=   178 1.00D-06 EigRej= -1.00D+00 NBFU=   178
 Defaulting to unpruned grid for atomic number  78.
 Initial guess from the checkpoint file:  "/home/scr/diego/Gau-10023.chk"
 B after Tr=     0.000000    0.000000    0.000000
         Rot=    0.999803    0.016352    0.010718   -0.003297 Ang=   2.27 deg.
 ExpMin= 2.90D-02 ExpMax= 1.04D+04 ExpMxC= 1.57D+03 IAcc=3 IRadAn=         5 AccDes= 0.00D+00
 Harris functional with IExCor=  402 and IRadAn=       5 diagonalized for initial guess.
 HarFok:  IExCor=  402 AccDes= 0.00D+00 IRadAn=         5 IDoV= 1 UseB2=F ITyADJ=14
 ICtDFT=  3500011 ScaDFX=  1.000000  1.000000  1.000000  1.000000
 Defaulting to unpruned grid for atomic number  78.
 Defaulting to unpruned grid for atomic number  78.
 Defaulting to unpruned grid for atomic number  78.
 Defaulting to unpruned grid for atomic number  78.
 Defaulting to unpruned grid for atomic number  78.
 Defaulting to unpruned grid for atomic number  78.
 Defaulting to unpruned grid for atomic number  78.
 Defaulting to unpruned grid for atomic number  78.
 FoFCou: FMM=F IPFlag=           0 FMFlag=      100000 FMFlg1=           0
         NFxFlg=           0 DoJE=T BraDBF=F KetDBF=T FulRan=T
         wScrn=  0.000000 ICntrl=     500 IOpCl=  0 I1Cent=   200000004 NGrid=           0
         NMat0=    1 NMatS0=      1 NMatT0=    0 NMatD0=    1 NMtDS0=    0 NMtDT0=    0
 Petite list used in FoFCou.
 Keep R1 ints in memory in canonical form, NReq=132300776.
 Requested convergence on RMS density matrix=1.00D-08 within 128 cycles.
 Requested convergence on MAX density matrix=1.00D-06.
 Requested convergence on             energy=1.00D-06.
 No special actions if energy rises.
 Defaulting to unpruned grid for atomic number  78.
 Defaulting to unpruned grid for atomic number  78.
 Defaulting to unpruned grid for atomic number  78.
 Defaulting to unpruned grid for atomic number  78.
 Defaulting to unpruned grid for atomic number  78.
 Defaulting to unpruned grid for atomic number  78.
 Defaulting to unpruned grid for atomic number  78.
 Defaulting to unpruned grid for atomic number  78.
 Inv3:  Mode=1 IEnd=     5771307.
 Iteration    1 A*A^-1 deviation from unit magnitude is 6.55D-15 for    301.
 Iteration    1 A*A^-1 deviation from orthogonality  is 6.27D-15 for   1200   1002.
 Iteration    1 A^-1*A deviation from unit magnitude is 5.55D-15 for    244.
 Iteration    1 A^-1*A deviation from orthogonality  is 2.23D-14 for    290    288.
 Error on total polarization charges =  0.01096
 SCF Done:  E(RB3LYP) =  -2369.55859163     A.U. after   17 cycles
            NFock= 17  Conv=0.38D-08     -V/T= 2.0383
   1 Symmetry operations used in ECPInt.
 ECPInt:  NShTT=    2926 NPrTT=   13061 LenC2=    2778 LenP2D=    8893.
 LDataN:  DoStor=T MaxTD1= 7 Len=  274
 D1PCM: PCM CHGder 1st derivatives, ID1Alg=3 FixD1E=F DoIter=F DoCFld=F I1PDM=0.
 Calling FoFJK, ICntrl=      2127 FMM=F ISym2X=0 I1Cent= 0 IOpClX= 0 NMat=1 NMatS=1 NMatT=0.
 Defaulting to unpruned grid for atomic number  78.
 Defaulting to unpruned grid for atomic number  78.
 Defaulting to unpruned grid for atomic number  78.
 Defaulting to unpruned grid for atomic number  78.
 Defaulting to unpruned grid for atomic number  78.
 Defaulting to unpruned grid for atomic number  78.
 Defaulting to unpruned grid for atomic number  78.
 Defaulting to unpruned grid for atomic number  78.
 ***** Axes restored to original set *****
 -------------------------------------------------------------------
 Center     Atomic                   Forces (Hartrees/Bohr)
 Number     Number              X              Y              Z
 -------------------------------------------------------------------
      1       78          -0.012646969    0.021902834    0.010580738
      2       17           0.001844642    0.001537139   -0.034688360
      3        7           0.100275285   -0.097292028   -0.126178188
      4        7          -0.006561206   -0.164589419    0.100717639
      5        8          -0.084411891    0.023354275    0.026708182
      6        8          -0.005297485    0.024616505    0.086941512
      7        8          -0.047537914    0.072472642   -0.024641567
      8        8           0.053219882    0.066700249   -0.023165403
      9       17           0.000445509    0.036357570   -0.000802793
     10       17           0.170357480    0.012727091   -0.007057074
     11       17          -0.169687332    0.002213143   -0.008414687
 -------------------------------------------------------------------
 Cartesian Forces:  Max     0.170357480 RMS     0.071056776

 GradGradGradGradGradGradGradGradGradGradGradGradGradGradGradGradGradGrad
 Berny optimization.
 Using GEDIIS/GDIIS optimizer.
 FormGI is forming the generalized inverse of G from B-inverse, IUseBI=4.
 Internal  Forces:  Max     0.170679264 RMS     0.045082792
 Search for a local minimum.
 Step number   2 out of a maximum of   60
 All quantities printed in internal units (Hartrees-Bohrs-Radians)
 Mixed Optimization -- RFO/linear search
 Update second derivatives using D2CorX and points    1    2
 DE= -1.19D-01 DEPred=-1.20D-01 R= 9.86D-01
 TightC=F SS=  1.41D+00  RLast= 3.30D-01 DXNew= 5.0454D-01 9.9052D-01
 Trust test= 9.86D-01 RLast= 3.30D-01 DXMaxT set to 5.05D-01
 ITU=  1  0
 Use linear search instead of GDIIS.
 Linear search step of   0.598 exceeds DXMaxT=   0.505 but not scaled.
 Quartic linear search produced a step of  2.00000.
 Iteration  1 RMS(Cart)=  0.11766118 RMS(Int)=  0.02061943
 Iteration  2 RMS(Cart)=  0.02017137 RMS(Int)=  0.00465664
 Iteration  3 RMS(Cart)=  0.00008576 RMS(Int)=  0.00465627
 Iteration  4 RMS(Cart)=  0.00000081 RMS(Int)=  0.00465627
 Variable       Old X    -DE/DX   Delta X   Delta X   Delta X     New X
                                 (Linear)    (Quad)   (Total)
    R1        4.35532   0.03473   0.09350   0.00000   0.09350   4.44882
    R2        3.84047   0.04949   0.15982   0.00000   0.15982   4.00029
    R3        3.85246   0.05338   0.18381   0.00000   0.18381   4.03626
    R4        4.35870   0.03633   0.10025   0.00000   0.10025   4.45895
    R5        3.90965   0.17068   0.29818   0.00000   0.29818   4.20783
    R6        3.90758   0.16979   0.29405   0.00000   0.29405   4.20163
    R7        2.51324  -0.08183  -0.11358   0.00000  -0.11358   2.39966
    R8        2.51319  -0.08071  -0.11368   0.00000  -0.11368   2.39951
    R9        2.50946  -0.08196  -0.12113   0.00000  -0.12113   2.38834
   R10        2.51128  -0.07995  -0.11749   0.00000  -0.11749   2.39379
    A1        1.58232   0.00458   0.02305   0.00000   0.02299   1.60531
    A2        1.56486  -0.00229  -0.01187   0.00000  -0.01179   1.55307
    A3        1.55700  -0.00517  -0.02758   0.00000  -0.02811   1.52889
    A4        1.56155  -0.00258  -0.01850   0.00000  -0.01846   1.54308
    A5        1.56023  -0.00810  -0.02113   0.00000  -0.02103   1.53920
    A6        1.59442   0.00822   0.04724   0.00000   0.04773   1.64215
    A7        1.56948  -0.00094  -0.00263   0.00000  -0.00203   1.56745
    A8        1.57581   0.00584   0.01003   0.00000   0.01012   1.58593
    A9        1.58010   0.00344   0.01861   0.00000   0.01906   1.59916
   A10        1.58451   0.00439   0.02743   0.00000   0.02738   1.61189
   A11        1.55541  -0.00596  -0.03077   0.00000  -0.03091   1.52450
   A12        1.56400  -0.00121  -0.01358   0.00000  -0.01379   1.55021
   A13        1.96606   0.02603   0.11086   0.00000   0.09981   2.06587
   A14        1.94653   0.01657   0.07180   0.00000   0.06043   2.00696
   A15        1.91832   0.00861   0.01537   0.00000  -0.00029   1.91803
   A16        1.95528   0.01764   0.08929   0.00000   0.07812   2.03340
   A17        1.96433   0.02122   0.10738   0.00000   0.09637   2.06069
   A18        1.90803   0.00791  -0.00520   0.00000  -0.02079   1.88725
   A19        3.14255  -0.00352   0.00192   0.00000   0.00196   3.14451
   A20        3.14718   0.00229   0.01118   0.00000   0.01120   3.15838
   A21        3.11855  -0.00775  -0.04608   0.00000  -0.04658   3.07198
   A22        3.13713  -0.00181  -0.00893   0.00000  -0.00891   3.12822
   A23        3.13343  -0.00219  -0.01632   0.00000  -0.01625   3.11718
   A24        3.16363   0.00708   0.04408   0.00000   0.04366   3.20729
    D1        1.73247   0.02069   0.06668   0.00000   0.06939   1.80186
    D2       -0.43427  -0.02326  -0.07800   0.00000  -0.08017  -0.51443
    D3       -1.40466   0.02250   0.07561   0.00000   0.07830  -1.32636
    D4        2.71179  -0.02145  -0.06907   0.00000  -0.07126   2.64054
    D5        0.17520   0.02566   0.09373   0.00000   0.09543   0.27063
    D6       -1.99154  -0.01829  -0.05095   0.00000  -0.05413  -2.04566
    D7       -2.98919   0.01809   0.04815   0.00000   0.05081  -2.93838
    D8        1.12727  -0.02586  -0.09653   0.00000  -0.09875   1.02852
    D9        1.02562   0.02294   0.08043   0.00000   0.08293   1.10855
   D10       -1.13291  -0.01728  -0.04784   0.00000  -0.05020  -1.18311
   D11       -2.12416   0.02072   0.06405   0.00000   0.06648  -2.05768
   D12        2.00049  -0.01949  -0.06421   0.00000  -0.06665   1.93385
   D13       -0.56870   0.01483   0.03338   0.00000   0.03594  -0.53277
   D14       -2.72723  -0.02539  -0.09489   0.00000  -0.09719  -2.82443
   D15        2.59495   0.02184   0.07750   0.00000   0.07974   2.67469
   D16        0.43642  -0.01838  -0.05076   0.00000  -0.05339   0.38303
         Item               Value     Threshold  Converged?
 Maximum Force            0.170679     0.000450     NO 
 RMS     Force            0.045083     0.000300     NO 
 Maximum Displacement     0.310410     0.001800     NO 
 RMS     Displacement     0.123561     0.001200     NO 
 Predicted change in Energy=-1.147708D-01
 GradGradGradGradGradGradGradGradGradGradGradGradGradGradGradGradGradGrad

                          Input orientation:                          
 ---------------------------------------------------------------------
 Center     Atomic      Atomic             Coordinates (Angstroms)
 Number     Number       Type             X           Y           Z
 ---------------------------------------------------------------------
      1         78           0       -0.300866    0.363535   -0.056936
      2         17           0       -0.257259    0.495444   -2.407048
      3          7           0       -0.288464   -1.752803   -0.102315
      4          7           0       -0.311916    0.250250    2.075928
      5          8           0        0.797749   -2.355535    0.161049
      6          8           0       -0.832724   -2.270608   -1.126016
      7          8           0        0.700491   -0.277522    2.617976
      8          8           0       -1.347217   -0.209265    2.643052
      9         17           0       -0.373004    2.720327    0.032105
     10         17           0        1.918704    0.536245   -0.099499
     11         17           0       -2.521766    0.345297   -0.160887
 ---------------------------------------------------------------------
                    Distance matrix (angstroms):
                    1          2          3          4          5
     1  Pt   0.000000
     2  Cl   2.354215   0.000000
     3  N    2.116861   3.219842   0.000000
     4  N    2.135899   4.490009   2.959310   0.000000
     5  O    2.940716   3.979478   1.269844   3.418805   0.000000
     6  O    2.892147   3.102136   1.269765   4.108334   2.078987
     7  O    2.927255   5.173550   3.248764   1.263853   3.219330
     8  O    2.951759   5.214224   3.322726   1.266741   3.920164
     9  Cl   2.359577   3.303478   4.475948   3.206591   5.210726
    10  Cl   2.226686   3.171949   3.179833   3.128888   3.112365
    11  Cl   2.223406   3.193083   3.064816   3.145761   4.291540
                    6          7          8          9         10
     6  O    0.000000
     7  O    4.510056   0.000000
     8  O    4.326628   2.048998   0.000000
     9  Cl   5.144125   4.101977   4.043346   0.000000
    10  Cl   4.062329   3.087220   4.329389   3.168511   0.000000
    11  Cl   3.259954   4.300339   3.090174   3.208612   4.444997
                   11
    11  Cl   0.000000
 Stoichiometry    Cl4N2O4Pt(2-)
 Framework group  C1[X(Cl4N2O4Pt)]
 Deg. of freedom    27
 Full point group                 C1      NOp   1
 Largest Abelian subgroup         C1      NOp   1
 Largest concise Abelian subgroup C1      NOp   1
                         Standard orientation:                         
 ---------------------------------------------------------------------
 Center     Atomic      Atomic             Coordinates (Angstroms)
 Number     Number       Type             X           Y           Z
 ---------------------------------------------------------------------
      1         78           0        0.116115   -0.064287   -0.002988
      2         17           0        2.030121    1.288128   -0.226328
      3          7           0       -1.128462    1.620483    0.303079
      4          7           0       -1.621273   -1.294496    0.170602
      5          8           0       -1.858704    2.013749   -0.658478
      6          8           0       -0.559278    2.615870    0.848549
      7          8           0       -2.513655   -1.137824   -0.710553
      8          8           0       -2.190625   -1.365922    1.299924
      9         17           0        1.480525   -1.968806   -0.283689
     10         17           0       -0.072971   -0.000548   -2.220715
     11         17           0        0.513458   -0.158449    2.182599
 ---------------------------------------------------------------------
 Rotational constants (GHZ):      0.5748125      0.5467934      0.5025204
 Basis read from rwf:  (5D, 7F)
 Pseudo-potential data read from rwf file.
 There are   190 symmetry adapted cartesian basis functions of A   symmetry.
 There are   178 symmetry adapted basis functions of A   symmetry.
   178 basis functions,   341 primitive gaussians,   190 cartesian basis functions
    67 alpha electrons       67 beta electrons
       nuclear repulsion energy      1365.6058580988 Hartrees.
 NAtoms=   11 NActive=   11 NUniq=   11 SFac= 1.00D+00 NAtFMM=   60 NAOKFM=F Big=F
 Integral buffers will be    131072 words long.
 Raffenetti 2 integral format.
 Two-electron integral symmetry is turned on.
 ------------------------------------------------------------------------------
 Polarizable Continuum Model (PCM)
 =================================
 Model                : PCM (using non-symmetric T matrix).
 Atomic radii         : UFF (Universal Force Field).
 Polarization charges : Total charges.
 Charge compensation  : None.
 Solution method      : On-the-fly selection.
 Cavity type          : Scaled VdW (van der Waals Surface) (Alpha=1.100).
 Cavity algorithm     : GePol (No added spheres)
                        Default sphere list used, NSphG=   11.
                        Lebedev-Laikov grids with approx.  5.0 points / Ang**2.
                        Smoothing algorithm: Karplus/York (Gamma=1.0000).
                        Polarization charges: spherical gaussians, with
                                              point-specific exponents (IZeta= 3).
                        Self-potential: point-specific (ISelfS= 7).
                        Self-field    : sphere-specific E.n sum rule (ISelfD= 2).
 1st derivatives      : Analytical E(r).r(x)/FMM algorithm (CHGder, D1EAlg=3).
                        Cavity 1st derivative terms included.
 Solvent              : Water, Eps=  78.355300 Eps(inf)=   1.777849
 ------------------------------------------------------------------------------
 Spheres list:
 ISph  on   Nord     Re0    Alpha      Xe            Ye            Ze
    1  Pt      1    1.3770  1.100      0.116115     -0.064287     -0.002988
    2  Cl      2    1.9735  1.100      2.030121      1.288128     -0.226328
    3   N      3    1.8300  1.100     -1.128462      1.620483      0.303079
    4   N      4    1.8300  1.100     -1.621273     -1.294496      0.170602
    5   O      5    1.7500  1.100     -1.858704      2.013749     -0.658478
    6   O      6    1.7500  1.100     -0.559278      2.615870      0.848549
    7   O      7    1.7500  1.100     -2.513655     -1.137824     -0.710553
    8   O      8    1.7500  1.100     -2.190625     -1.365922      1.299924
    9  Cl      9    1.9735  1.100      1.480525     -1.968806     -0.283689
   10  Cl     10    1.9735  1.100     -0.072971     -0.000548     -2.220715
   11  Cl     11    1.9735  1.100      0.513458     -0.158449      2.182599
 ------------------------------------------------------------------------------
 One-electron integrals computed using PRISM.
   1 Symmetry operations used in ECPInt.
 ECPInt:  NShTT=    2926 NPrTT=   13061 LenC2=    2753 LenP2D=    8774.
 LDataN:  DoStor=T MaxTD1= 6 Len=  172
 NBasis=   178 RedAO= T EigKep=  4.72D-03  NBF=   178
 NBsUse=   178 1.00D-06 EigRej= -1.00D+00 NBFU=   178
 Defaulting to unpruned grid for atomic number  78.
 Initial guess from the checkpoint file:  "/home/scr/diego/Gau-10023.chk"
 B after Tr=     0.000000    0.000000    0.000000
         Rot=    0.998459    0.047903    0.024822   -0.012990 Ang=   6.36 deg.
 ExpMin= 2.90D-02 ExpMax= 1.04D+04 ExpMxC= 1.57D+03 IAcc=3 IRadAn=         5 AccDes= 0.00D+00
 Harris functional with IExCor=  402 and IRadAn=       5 diagonalized for initial guess.
 HarFok:  IExCor=  402 AccDes= 0.00D+00 IRadAn=         5 IDoV= 1 UseB2=F ITyADJ=14
 ICtDFT=  3500011 ScaDFX=  1.000000  1.000000  1.000000  1.000000
 Defaulting to unpruned grid for atomic number  78.
 Defaulting to unpruned grid for atomic number  78.
 Defaulting to unpruned grid for atomic number  78.
 Defaulting to unpruned grid for atomic number  78.
 Defaulting to unpruned grid for atomic number  78.
 Defaulting to unpruned grid for atomic number  78.
 Defaulting to unpruned grid for atomic number  78.
 Defaulting to unpruned grid for atomic number  78.
 FoFCou: FMM=F IPFlag=           0 FMFlag=      100000 FMFlg1=           0
         NFxFlg=           0 DoJE=T BraDBF=F KetDBF=T FulRan=T
         wScrn=  0.000000 ICntrl=     500 IOpCl=  0 I1Cent=   200000004 NGrid=           0
         NMat0=    1 NMatS0=      1 NMatT0=    0 NMatD0=    1 NMtDS0=    0 NMtDT0=    0
 Petite list used in FoFCou.
 Keep R1 ints in memory in canonical form, NReq=132508616.
 Requested convergence on RMS density matrix=1.00D-08 within 128 cycles.
 Requested convergence on MAX density matrix=1.00D-06.
 Requested convergence on             energy=1.00D-06.
 No special actions if energy rises.
 Defaulting to unpruned grid for atomic number  78.
 Defaulting to unpruned grid for atomic number  78.
 Defaulting to unpruned grid for atomic number  78.
 Defaulting to unpruned grid for atomic number  78.
 Defaulting to unpruned grid for atomic number  78.
 Defaulting to unpruned grid for atomic number  78.
 Defaulting to unpruned grid for atomic number  78.
 Defaulting to unpruned grid for atomic number  78.
 Inv3:  Mode=1 IEnd=     6377292.
 Iteration    1 A*A^-1 deviation from unit magnitude is 6.88D-15 for   1322.
 Iteration    1 A*A^-1 deviation from orthogonality  is 5.34D-15 for    639    600.
 Iteration    1 A^-1*A deviation from unit magnitude is 5.55D-15 for    258.
 Iteration    1 A^-1*A deviation from orthogonality  is 1.51D-12 for    189    162.
 Error on total polarization charges =  0.01041
 SCF Done:  E(RB3LYP) =  -2369.68887244     A.U. after   17 cycles
            NFock= 17  Conv=0.30D-08     -V/T= 2.0385
   1 Symmetry operations used in ECPInt.
 ECPInt:  NShTT=    2926 NPrTT=   13061 LenC2=    2753 LenP2D=    8774.
 LDataN:  DoStor=T MaxTD1= 7 Len=  274
 D1PCM: PCM CHGder 1st derivatives, ID1Alg=3 FixD1E=F DoIter=F DoCFld=F I1PDM=0.
 Calling FoFJK, ICntrl=      2127 FMM=F ISym2X=0 I1Cent= 0 IOpClX= 0 NMat=1 NMatS=1 NMatT=0.
 Defaulting to unpruned grid for atomic number  78.
 Defaulting to unpruned grid for atomic number  78.
 Defaulting to unpruned grid for atomic number  78.
 Defaulting to unpruned grid for atomic number  78.
 Defaulting to unpruned grid for atomic number  78.
 Defaulting to unpruned grid for atomic number  78.
 Defaulting to unpruned grid for atomic number  78.
 Defaulting to unpruned grid for atomic number  78.
 ***** Axes restored to original set *****
 -------------------------------------------------------------------
 Center     Atomic                   Forces (Hartrees/Bohr)
 Number     Number              X              Y              Z
 -------------------------------------------------------------------
      1       78          -0.010160292    0.013463722    0.020605253
      2       17           0.000743485   -0.002147639   -0.016370180
      3        7           0.073306943   -0.072887989   -0.097693609
      4        7          -0.002923709   -0.123345874    0.072632221
      5        8          -0.031993386    0.032391873    0.042237180
      6        8          -0.031296840    0.029729641    0.042838638
      7        8           0.015038394    0.052704495   -0.031619713
      8        8          -0.012576214    0.053988022   -0.032880148
      9       17          -0.000044186    0.016644071    0.000355516
     10       17           0.063700703    0.001764278    0.000427740
     11       17          -0.063794897   -0.002304600   -0.000532899
 -------------------------------------------------------------------
 Cartesian Forces:  Max     0.123345874 RMS     0.044666311

 GradGradGradGradGradGradGradGradGradGradGradGradGradGradGradGradGradGrad
 Berny optimization.
 Using GEDIIS/GDIIS optimizer.
 FormGI is forming the generalized inverse of G from B-inverse, IUseBI=4.
 Internal  Forces:  Max     0.063772003 RMS     0.022333005
 Search for a local minimum.
 Step number   3 out of a maximum of   60
 All quantities printed in internal units (Hartrees-Bohrs-Radians)
 Mixed Optimization -- RFO/linear search
 Update second derivatives using D2CorX and points    2    3
 ITU=  0  1  0
 Use linear search instead of GDIIS.
     Eigenvalues ---    0.00230   0.00230   0.02400   0.02468   0.08455
     Eigenvalues ---    0.08492   0.08706   0.09323   0.12610   0.12624
     Eigenvalues ---    0.16451   0.17043   0.19512   0.20378   0.21542
     Eigenvalues ---    0.22001   0.24872   0.24994   0.25000   0.25000
     Eigenvalues ---    0.27579   0.42363   0.52948   0.52948   0.53029
     Eigenvalues ---    0.55202   0.57824
 RFO step:  Lambda=-1.11666333D-01 EMin= 2.29999898D-03
 Quartic linear search produced a step of  0.73140.
 Iteration  1 RMS(Cart)=  0.09189496 RMS(Int)=  0.02017007
 Iteration  2 RMS(Cart)=  0.01920737 RMS(Int)=  0.00768800
 Iteration  3 RMS(Cart)=  0.00024049 RMS(Int)=  0.00768518
 Iteration  4 RMS(Cart)=  0.00000131 RMS(Int)=  0.00768518
 Iteration  5 RMS(Cart)=  0.00000002 RMS(Int)=  0.00768518
 Variable       Old X    -DE/DX   Delta X   Delta X   Delta X     New X
                                 (Linear)    (Quad)   (Total)
    R1        4.44882   0.01623   0.06838   0.03532   0.10370   4.55252
    R2        4.00029   0.01108   0.11689  -0.00302   0.11387   4.11416
    R3        4.03626   0.00901   0.13444  -0.01586   0.11857   4.15484
    R4        4.45895   0.01664   0.07332   0.03578   0.10910   4.56806
    R5        4.20783   0.06362   0.21809   0.04181   0.25990   4.46773
    R6        4.20163   0.06377   0.21507   0.04239   0.25746   4.45909
    R7        2.39966  -0.03398  -0.08307  -0.02578  -0.10885   2.29081
    R8        2.39951  -0.03324  -0.08314  -0.02494  -0.10809   2.29142
    R9        2.38834  -0.02351  -0.08859  -0.00069  -0.08928   2.29906
   R10        2.39379  -0.02404  -0.08593  -0.00333  -0.08926   2.30453
    A1        1.60531  -0.00369   0.01682  -0.02654  -0.00976   1.59556
    A2        1.55307   0.00304  -0.00862   0.01950   0.01091   1.56398
    A3        1.52889   0.00116  -0.02056   0.01708  -0.00373   1.52517
    A4        1.54308   0.00206  -0.01351   0.01761   0.00410   1.54718
    A5        1.53920  -0.00308  -0.01538  -0.00996  -0.02529   1.51391
    A6        1.64215  -0.00361   0.03491  -0.03535  -0.00018   1.64197
    A7        1.56745   0.00017  -0.00149  -0.00032  -0.00154   1.56591
    A8        1.58593   0.00370   0.00740   0.01666   0.02411   1.61004
    A9        1.59916  -0.00048   0.01394  -0.01003   0.00409   1.60325
   A10        1.61189  -0.00229   0.02003  -0.02220  -0.00223   1.60966
   A11        1.52450   0.00184  -0.02261   0.01877  -0.00393   1.52058
   A12        1.55021   0.00151  -0.01009   0.01589   0.00573   1.55594
   A13        2.06587  -0.01625   0.07300  -0.05020  -0.00029   2.06558
   A14        2.00696  -0.01254   0.04420  -0.02464  -0.00368   2.00328
   A15        1.91803   0.04394  -0.00021   0.24247   0.21674   2.13477
   A16        2.03340  -0.02262   0.05714  -0.06605  -0.02771   2.00569
   A17        2.06069  -0.02517   0.07048  -0.08032  -0.02858   2.03211
   A18        1.88725   0.05769  -0.01520   0.30312   0.26690   2.15415
   A19        3.14451  -0.00677   0.00144  -0.03650  -0.03504   3.10947
   A20        3.15838  -0.00064   0.00819  -0.00704   0.00116   3.15954
   A21        3.07198   0.00322  -0.03407   0.03469   0.00037   3.07235
   A22        3.12822   0.00020  -0.00652   0.00443  -0.00209   3.12613
   A23        3.11718   0.00174  -0.01189   0.01609   0.00424   3.12142
   A24        3.20729  -0.00308   0.03193  -0.03278  -0.00104   3.20625
    D1        1.80186   0.01826   0.05075   0.14973   0.20300   2.00486
    D2       -0.51443  -0.01922  -0.05863  -0.15376  -0.21466  -0.72909
    D3       -1.32636   0.01806   0.05727   0.14530   0.20509  -1.12127
    D4        2.64054  -0.01942  -0.05212  -0.15819  -0.21257   2.42796
    D5        0.27063   0.01747   0.06980   0.13558   0.20743   0.47805
    D6       -2.04566  -0.02001  -0.03959  -0.16791  -0.21023  -2.25590
    D7       -2.93838   0.02035   0.03716   0.16745   0.20710  -2.73127
    D8        1.02852  -0.01714  -0.07222  -0.13604  -0.21056   0.81796
    D9        1.10855   0.01755   0.06066   0.14603   0.20883   1.31738
   D10       -1.18311  -0.02040  -0.03672  -0.17281  -0.21164  -1.39475
   D11       -2.05768   0.01930   0.04863   0.16227   0.21300  -1.84468
   D12        1.93385  -0.01865  -0.04875  -0.15657  -0.20747   1.72638
   D13       -0.53277   0.02123   0.02628   0.18138   0.20988  -0.32289
   D14       -2.82443  -0.01672  -0.07109  -0.13746  -0.21059  -3.03501
   D15        2.67469   0.01767   0.05832   0.14600   0.20637   2.88106
   D16        0.38303  -0.02028  -0.03905  -0.17284  -0.21410   0.16893
         Item               Value     Threshold  Converged?
 Maximum Force            0.063772     0.000450     NO 
 RMS     Force            0.022333     0.000300     NO 
 Maximum Displacement     0.281187     0.001800     NO 
 RMS     Displacement     0.098936     0.001200     NO 
 Predicted change in Energy=-9.816832D-02
 GradGradGradGradGradGradGradGradGradGradGradGradGradGradGradGradGradGrad

                          Input orientation:                          
 ---------------------------------------------------------------------
 Center     Atomic      Atomic             Coordinates (Angstroms)
 Number     Number       Type             X           Y           Z
 ---------------------------------------------------------------------
      1         78           0       -0.285303    0.361368   -0.073796
      2         17           0       -0.225224    0.555199   -2.474325
      3          7           0       -0.230025   -1.811738   -0.193788
      4          7           0       -0.304342    0.115026    2.110921
      5          8           0        0.740411   -2.388158    0.248396
      6          8           0       -0.929075   -2.290791   -1.061058
      7          8           0        0.766115   -0.190722    2.601611
      8          8           0       -1.378831   -0.162447    2.616568
      9         17           0       -0.396498    2.769762    0.101349
     10         17           0        2.067502    0.591350   -0.104568
     11         17           0       -2.641000    0.296518   -0.193901
 ---------------------------------------------------------------------
                    Distance matrix (angstroms):
                    1          2          3          4          5
     1  Pt   0.000000
     2  Cl   2.409090   0.000000
     3  N    2.177119   3.286832   0.000000
     4  N    2.198645   4.607005   3.004934   0.000000
     5  O    2.952252   4.124198   1.212242   3.290355   0.000000
     6  O    2.902254   3.254595   1.212567   4.029850   2.123990
     7  O    2.927129   5.225349   3.381455   1.216608   3.219783
     8  O    2.950974   5.269062   3.455144   1.219507   3.879847
     9  Cl   2.417312   3.401135   4.594014   3.330840   5.283779
    10  Cl   2.364219   3.297522   3.325872   3.280384   3.280734
    11  Cl   2.359648   3.332150   3.202741   3.287113   4.340167
                    6          7          8          9         10
     6  O    0.000000
     7  O    4.549626   0.000000
     8  O    4.272828   2.145184   0.000000
     9  Cl   5.219580   4.045669   3.986120   0.000000
    10  Cl   4.266272   3.103006   4.455334   3.295327   0.000000
    11  Cl   3.221307   4.434041   3.114876   3.352893   4.718569
                   11
    11  Cl   0.000000
 Stoichiometry    Cl4N2O4Pt(2-)
 Framework group  C1[X(Cl4N2O4Pt)]
 Deg. of freedom    27
 Full point group                 C1      NOp   1
 Largest Abelian subgroup         C1      NOp   1
 Largest concise Abelian subgroup C1      NOp   1
                         Standard orientation:                         
 ---------------------------------------------------------------------
 Center     Atomic      Atomic             Coordinates (Angstroms)
 Number     Number       Type             X           Y           Z
 ---------------------------------------------------------------------
      1         78           0        0.119696   -0.047576   -0.000974
      2         17           0        2.049667    1.306175   -0.497247
      3          7           0       -1.186008    1.693237   -0.068461
      4          7           0       -1.686529   -1.229858    0.415917
      5          8           0       -2.026739    1.748752   -0.940024
      6          8           0       -0.736979    2.686239    0.463177
      7          8           0       -2.405217   -1.424371   -0.546261
      8          8           0       -2.093103   -1.212839    1.565529
      9         17           0        1.542007   -1.997736    0.130584
     10         17           0       -0.045037   -0.471338   -2.321064
     11         17           0        0.504408    0.344373    2.293870
 ---------------------------------------------------------------------
 Rotational constants (GHZ):      0.5382940      0.5136952      0.4899993
 Basis read from rwf:  (5D, 7F)
 Pseudo-potential data read from rwf file.
 There are   190 symmetry adapted cartesian basis functions of A   symmetry.
 There are   178 symmetry adapted basis functions of A   symmetry.
   178 basis functions,   341 primitive gaussians,   190 cartesian basis functions
    67 alpha electrons       67 beta electrons
       nuclear repulsion energy      1333.1327786196 Hartrees.
 NAtoms=   11 NActive=   11 NUniq=   11 SFac= 1.00D+00 NAtFMM=   60 NAOKFM=F Big=F
 Integral buffers will be    131072 words long.
 Raffenetti 2 integral format.
 Two-electron integral symmetry is turned on.
 ------------------------------------------------------------------------------
 Polarizable Continuum Model (PCM)
 =================================
 Model                : PCM (using non-symmetric T matrix).
 Atomic radii         : UFF (Universal Force Field).
 Polarization charges : Total charges.
 Charge compensation  : None.
 Solution method      : On-the-fly selection.
 Cavity type          : Scaled VdW (van der Waals Surface) (Alpha=1.100).
 Cavity algorithm     : GePol (No added spheres)
                        Default sphere list used, NSphG=   11.
                        Lebedev-Laikov grids with approx.  5.0 points / Ang**2.
                        Smoothing algorithm: Karplus/York (Gamma=1.0000).
                        Polarization charges: spherical gaussians, with
                                              point-specific exponents (IZeta= 3).
                        Self-potential: point-specific (ISelfS= 7).
                        Self-field    : sphere-specific E.n sum rule (ISelfD= 2).
 1st derivatives      : Analytical E(r).r(x)/FMM algorithm (CHGder, D1EAlg=3).
                        Cavity 1st derivative terms included.
 Solvent              : Water, Eps=  78.355300 Eps(inf)=   1.777849
 ------------------------------------------------------------------------------
 Spheres list:
 ISph  on   Nord     Re0    Alpha      Xe            Ye            Ze
    1  Pt      1    1.3770  1.100      0.119696     -0.047576     -0.000974
    2  Cl      2    1.9735  1.100      2.049667      1.306175     -0.497247
    3   N      3    1.8300  1.100     -1.186008      1.693237     -0.068461
    4   N      4    1.8300  1.100     -1.686529     -1.229858      0.415917
    5   O      5    1.7500  1.100     -2.026739      1.748752     -0.940024
    6   O      6    1.7500  1.100     -0.736979      2.686239      0.463177
    7   O      7    1.7500  1.100     -2.405217     -1.424371     -0.546261
    8   O      8    1.7500  1.100     -2.093103     -1.212839      1.565529
    9  Cl      9    1.9735  1.100      1.542007     -1.997736      0.130584
   10  Cl     10    1.9735  1.100     -0.045037     -0.471338     -2.321064
   11  Cl     11    1.9735  1.100      0.504408      0.344373      2.293870
[...]
 Vibration     8          0.614              1.915              2.833
 Vibration     9          0.616              1.908              2.736
 Vibration    10          0.619              1.900              2.641
 Vibration    11          0.620              1.896              2.593
 Vibration    12          0.660              1.770              1.762
 Vibration    13          0.672              1.734              1.617
 Vibration    14          0.673              1.732              1.609
 Vibration    15          0.674              1.728              1.596
 Vibration    16          0.689              1.685              1.451
 Vibration    17          0.692              1.675              1.422
 Vibration    18          0.704              1.642              1.327
 Vibration    19          0.728              1.573              1.162
 Vibration    20          0.955              1.039              0.455
 Vibration    21          0.977              0.996              0.421
                       Q            Log10(Q)             Ln(Q)
 Total Bot       0.116178D+08          7.065125         16.268053
 Total V=0       0.184763D+21         20.266615         46.665606
 Vib (Bot)       0.140898D-07         -7.851094        -18.077812
 Vib (Bot)    1  0.535749D+01          0.728962          1.678496
 Vib (Bot)    2  0.313375D+01          0.496065          1.142232
 Vib (Bot)    3  0.193162D+01          0.285921          0.658358
 Vib (Bot)    4  0.177234D+01          0.248546          0.572299
 Vib (Bot)    5  0.162451D+01          0.210724          0.485209
 Vib (Bot)    6  0.160816D+01          0.206330          0.475093
 Vib (Bot)    7  0.153377D+01          0.185760          0.427728
 Vib (Bot)    8  0.147516D+01          0.168840          0.388769
 Vib (Bot)    9  0.139963D+01          0.146012          0.336206
 Vib (Bot)   10  0.132891D+01          0.123495          0.284357
 Vib (Bot)   11  0.129416D+01          0.111987          0.257859
 Vib (Bot)   12  0.796374D+00         -0.098883         -0.227687
 Vib (Bot)   13  0.725570D+00         -0.139321         -0.320798
 Vib (Bot)   14  0.721814D+00         -0.141575         -0.325988
 Vib (Bot)   15  0.715910D+00         -0.145141         -0.334200
 Vib (Bot)   16  0.649069D+00         -0.187709         -0.432216
 Vib (Bot)   17  0.635971D+00         -0.196563         -0.452603
 Vib (Bot)   18  0.594812D+00         -0.225620         -0.519510
 Vib (Bot)   19  0.525512D+00         -0.279417         -0.643382
 Vib (Bot)   20  0.250994D+00         -0.600337         -1.382327
 Vib (Bot)   21  0.237734D+00         -0.623910         -1.436605
 Vib (V=0)       0.224076D+06          5.350396         12.319741
 Vib (V=0)    1  0.588077D+01          0.769434          1.771688
 Vib (V=0)    2  0.367339D+01          0.565067          1.301115
 Vib (V=0)    3  0.249528D+01          0.397119          0.914401
 Vib (V=0)    4  0.234152D+01          0.369497          0.850798
 Vib (V=0)    5  0.219972D+01          0.342367          0.788330
 Vib (V=0)    6  0.218410D+01          0.339272          0.781203
 Vib (V=0)    7  0.211321D+01          0.324943          0.748208
 Vib (V=0)    8  0.205760D+01          0.313360          0.721539
 Vib (V=0)    9  0.198626D+01          0.298035          0.686251
 Vib (V=0)   10  0.191986D+01          0.283269          0.652251
 Vib (V=0)   11  0.188739D+01          0.275861          0.635193
 Vib (V=0)   12  0.144032D+01          0.158460          0.364869
 Vib (V=0)   13  0.138117D+01          0.140246          0.322927
 Vib (V=0)   14  0.137807D+01          0.139273          0.320687
 Vib (V=0)   15  0.137323D+01          0.137743          0.317164
 Vib (V=0)   16  0.131932D+01          0.120351          0.277119
 Vib (V=0)   17  0.130899D+01          0.116935          0.269253
 Vib (V=0)   18  0.127705D+01          0.106207          0.244550
 Vib (V=0)   19  0.122537D+01          0.088268          0.203244
 Vib (V=0)   20  0.105946D+01          0.025085          0.057761
 Vib (V=0)   21  0.105364D+01          0.022692          0.052251
 Electronic      0.100000D+01          0.000000          0.000000
 Translational   0.346602D+09          8.539832         19.663689
 Rotational      0.237896D+07          6.376388         14.682176
 ***** Axes restored to original set *****
 -------------------------------------------------------------------
 Center     Atomic                   Forces (Hartrees/Bohr)
 Number     Number              X              Y              Z
 -------------------------------------------------------------------
      1       78          -0.000064492   -0.000023886    0.000009697
      2       17          -0.000002299    0.000077140    0.000018328
      3        7          -0.000014660    0.000060254   -0.000044405
      4        7           0.000046802   -0.000037171   -0.000004616
      5        8          -0.000046600   -0.000030137   -0.000066540
      6        8          -0.000020828    0.000026607   -0.000031700
      7        8          -0.000003127   -0.000083478   -0.000019117
      8        8          -0.000014112   -0.000038477    0.000030084
      9       17           0.000047210    0.000014362    0.000067165
     10       17           0.000059763   -0.000012418    0.000032325
     11       17           0.000012343    0.000047204    0.000008779
 -------------------------------------------------------------------
 Cartesian Forces:  Max     0.000083478 RMS     0.000040558
 FormGI is forming the generalized inverse of G from B-inverse, IUseBI=4.

 GradGradGradGradGradGradGradGradGradGradGradGradGradGradGradGradGradGrad
 Berny optimization.
 Internal  Forces:  Max     0.000051171 RMS     0.000014302
 Search for a local minimum.
 Step number   1 out of a maximum of    2
 All quantities printed in internal units (Hartrees-Bohrs-Radians)
 Second derivative matrix not updated -- analytic derivatives used.
 ITU=  0
     Eigenvalues ---    0.00096   0.00317   0.04266   0.04405   0.05673
     Eigenvalues ---    0.05980   0.06478   0.06962   0.07574   0.08431
     Eigenvalues ---    0.08653   0.08977   0.09108   0.09802   0.10027
     Eigenvalues ---    0.11181   0.12366   0.12871   0.15251   0.16752
     Eigenvalues ---    0.24716   0.31342   0.33900   0.59157   0.60520
     Eigenvalues ---    0.84817   0.85712
 Angle between quadratic step and forces=  79.30 degrees.
 Linear search not attempted -- first point.
 Iteration  1 RMS(Cart)=  0.00107583 RMS(Int)=  0.00000078
 Iteration  2 RMS(Cart)=  0.00000081 RMS(Int)=  0.00000002
 Variable       Old X    -DE/DX   Delta X   Delta X   Delta X     New X
                                 (Linear)    (Quad)   (Total)
    R1        4.65735   0.00000   0.00000   0.00006   0.00006   4.65741
    R2        3.98492  -0.00001   0.00000  -0.00002  -0.00002   3.98490
    R3        3.98897  -0.00001   0.00000  -0.00020  -0.00020   3.98877
    R4        4.65678   0.00001   0.00000   0.00007   0.00007   4.65685
    R5        4.56184   0.00005   0.00000   0.00052   0.00052   4.56237
    R6        4.56270  -0.00001   0.00000  -0.00016  -0.00016   4.56254
    R7        2.29450  -0.00001   0.00000  -0.00001  -0.00001   2.29448
    R8        2.29490  -0.00001   0.00000   0.00002   0.00002   2.29492
    R9        2.29395   0.00001   0.00000  -0.00001  -0.00001   2.29394
   R10        2.29559   0.00003   0.00000   0.00003   0.00003   2.29563
    A1        1.55913   0.00002   0.00000  -0.00014  -0.00014   1.55899
    A2        1.58360  -0.00002   0.00000  -0.00017  -0.00017   1.58343
    A3        1.55465   0.00002   0.00000   0.00050   0.00050   1.55515
    A4        1.58950  -0.00001   0.00000  -0.00001  -0.00001   1.58949
    A5        1.59420  -0.00002   0.00000  -0.00012  -0.00012   1.59408
    A6        1.57385   0.00001   0.00000   0.00028   0.00028   1.57413
    A7        1.55061   0.00000   0.00000   0.00013   0.00013   1.55074
    A8        1.54624   0.00002   0.00000   0.00042   0.00042   1.54667
    A9        1.58424  -0.00002   0.00000  -0.00041  -0.00041   1.58383
   A10        1.55499   0.00001   0.00000  -0.00008  -0.00008   1.55491
   A11        1.55986  -0.00001   0.00000  -0.00035  -0.00035   1.55951
   A12        1.59885   0.00000   0.00000  -0.00006  -0.00006   1.59880
   A13        2.06006   0.00001   0.00000   0.00015   0.00015   2.06021
   A14        2.05587   0.00002   0.00000  -0.00002  -0.00002   2.05585
   A15        2.16723  -0.00004   0.00000  -0.00013  -0.00013   2.16710
   A16        2.06480  -0.00001   0.00000  -0.00004  -0.00004   2.06476
   A17        2.05226   0.00000   0.00000   0.00000   0.00000   2.05226
   A18        2.16606   0.00001   0.00000   0.00005   0.00005   2.16611
   A19        3.15332  -0.00001   0.00000  -0.00025  -0.00025   3.15307
   A20        3.14272   0.00000   0.00000  -0.00031  -0.00031   3.14242
   A21        3.14415   0.00001   0.00000   0.00049   0.00049   3.14464
   A22        3.13893   0.00000   0.00000   0.00009   0.00009   3.13902
   A23        3.14949   0.00001   0.00000   0.00007   0.00007   3.14956
   A24        3.12443   0.00001   0.00000   0.00040   0.00040   3.12483
    D1        2.33898   0.00001   0.00000  -0.00158  -0.00158   2.33740
    D2       -0.79528   0.00000   0.00000  -0.00161  -0.00161  -0.79689
    D3       -0.79996   0.00001   0.00000  -0.00166  -0.00166  -0.80162
    D4        2.34897   0.00000   0.00000  -0.00170  -0.00170   2.34727
    D5        0.78436  -0.00001   0.00000  -0.00207  -0.00207   0.78229
    D6       -2.34990  -0.00002   0.00000  -0.00211  -0.00211  -2.35200
    D7       -2.35447   0.00000   0.00000  -0.00159  -0.00159  -2.35606
    D8        0.79446  -0.00001   0.00000  -0.00162  -0.00162   0.79284
    D9        0.87311  -0.00001   0.00000  -0.00198  -0.00198   0.87113
   D10       -2.28068   0.00000   0.00000  -0.00155  -0.00155  -2.28223
   D11       -2.26059   0.00000   0.00000  -0.00191  -0.00191  -2.26250
   D12        0.86881   0.00001   0.00000  -0.00149  -0.00149   0.86732
   D13       -0.70106  -0.00001   0.00000  -0.00224  -0.00224  -0.70330
   D14        2.42834   0.00000   0.00000  -0.00182  -0.00182   2.42652
   D15        2.42334  -0.00001   0.00000  -0.00185  -0.00185   2.42150
   D16       -0.73045   0.00001   0.00000  -0.00142  -0.00142  -0.73187
         Item               Value     Threshold  Converged?
 Maximum Force            0.000051     0.000450     YES
 RMS     Force            0.000014     0.000300     YES
 Maximum Displacement     0.003519     0.001800     NO 
 RMS     Displacement     0.001076     0.001200     YES
 Predicted change in Energy=-6.799835D-08
 GradGradGradGradGradGradGradGradGradGradGradGradGradGradGradGradGradGrad

 1\1\GINC-NEQC17\Freq\RB3LYP\Gen\Cl4N2O4Pt1(2-)\DIEGO\18-Aug-2021\0\\#N
  Geom=AllCheck Guess=TCheck SCRF=Check GenChk RB3LYP/ChkBas Freq\\Estr
 utura 41\\-2,1\Pt,-0.2945795698,0.3020198927,-0.0678120552\Cl,-0.26459
 96756,0.6001554493,-2.5140947219\N,-0.1068139305,-1.7800884504,-0.3440
 531539\N,-0.3168699708,0.0716608664,2.0303322621\O,0.7033744471,-2.375
 298622,0.3368221963\O,-0.8120577133,-2.3061154774,-1.1811429412\O,0.55
 37875583,-0.5996754163,2.5449434516\O,-1.1984571853,0.6339519872,2.648
 6434567\Cl,-0.4946467243,2.7364150245,0.2582009447\Cl,2.1091553151,0.5
 239785141,-0.0505605055\Cl,-2.694564161,0.0383620319,-0.0838687236\\Ve
 rsion=EM64L-G09RevD.01\State=1-A\HF=-2369.7933001\RMSD=3.627e-09\RMSF=
 4.056e-05\ZeroPoint=0.0287009\Thermal=0.0432119\Dipole=0.0538382,-0.64
 13465,0.4886792\DipoleDeriv=1.2825859,0.1571236,-0.1008128,0.1473449,1
 .0935329,0.0045738,-0.0960801,0.0101173,1.066796,-0.2531807,-0.0027738
 ,0.0255498,0.017445,-0.2927897,0.1678253,0.0279387,0.1942185,-1.592852
 7,1.3278604,-0.2731594,0.8170683,-0.2476487,2.9066559,0.4285686,0.8568
 029,0.3143355,1.3546737,1.605074,-0.8004294,-0.0913994,-0.8282178,0.99
 60419,-0.1863497,-0.1258025,-0.0975983,2.9875349,-0.7790013,0.5858803,
 -0.3384157,0.4896175,-1.8314481,0.0953853,-0.3656108,0.1999811,-0.5877
 101,-0.6520796,-0.2858733,-0.4373086,-0.1967198,-1.7721806,-0.5997169,
 -0.4178792,-0.6158601,-0.8843835,-0.8257551,0.4081997,-0.4507396,0.404
 3657,-0.5889037,0.4500399,-0.3483467,0.3820068,-1.7982138,-0.8697053,0
 .3589775,0.5710033,0.3623499,-0.5336559,-0.2168996,0.4679918,-0.207224
 1,-1.9060308,-0.2525152,0.0947435,0.0013525,0.1059106,-1.589892,-0.145
 2768,-0.0118647,-0.188116,-0.2902571,-1.2935191,-0.1811623,0.0568888,-
 0.1117856,-0.1908433,-0.0206489,0.0092036,-0.0177052,-0.181384,-1.2897
 639,-0.0615263,-0.0531866,-0.1426616,-0.1965174,0.0224991,0.0036471,0.
 0258445,-0.1681727\Polar=179.0129043,-7.3599385,179.2167592,5.4064343,
 3.3691159,183.9685922\PG=C01 [X(Cl4N2O4Pt1)]\NImag=0\\0.30182195,-0.00
 609976,0.23326590,0.01208464,-0.00882517,0.23164451,-0.02079864,0.0014
 3401,0.00041304,0.01165369,0.00083725,-0.01792547,0.00665981,-0.000506
 97,0.01664486,-0.00051065,0.00714858,-0.06935504,-0.00119655,-0.009592
 16,0.08215714,-0.04597401,0.00182210,0.01227364,-0.00055604,-0.0035088
 0,-0.00019949,0.55368415,-0.00045637,-0.06716847,0.00770125,-0.0003053
 0,-0.00529719,0.00026776,-0.05473006,0.54379705,0.01235396,0.00375304,
 -0.04339427,-0.00147647,-0.00034807,-0.00167740,0.38432886,0.03536768,
 0.55724841,-0.04130612,-0.01235371,-0.00361773,0.00778187,0.00062656,0
 .00038999,0.00725477,-0.00433949,0.00624278,0.67965744,-0.01234452,-0.
 05100186,0.00597997,0.00068466,0.00847811,-0.00169535,-0.00427167,0.00
 283201,-0.01334952,-0.36571779,0.42158913,-0.00173929,0.01112258,-0.06
 374403,-0.00023305,-0.00218638,0.02244875,0.00651558,-0.02858384,-0.00
 616565,-0.03170462,-0.01661071,0.55168410,0.00075449,0.00652874,-0.010
 10820,0.00038860,0.00106555,0.00030203,-0.28484955,0.17463895,-0.19344
 241,-0.00414403,0.00193091,-0.00606877,0.34728286,0.01966166,-0.008061
 52,0.01261979,-0.00002975,0.00062486,0.00056953,0.17908297,-0.25386264
 ,0.13457515,0.00137018,0.00086157,0.00973025,-0.19049485,0.22566268,-0
 .00889700,0.00150649,0.00753795,0.00053699,0.00036696,0.00072323,-0.19
 130679,0.13006601,-0.21689962,-0.00701628,0.00568810,-0.00490202,0.283
 51176,-0.14520335,0.27762623,0.00476451,-0.00248751,-0.01063186,0.0004
 6739,0.00246305,-0.00005254,-0.22878217,-0.12005039,-0.20372633,-0.002
 49200,0.00150955,0.00067832,-0.06230550,-0.00639363,-0.08536708,0.2874
 2746,-0.01335912,-0.00487176,-0.02121331,0.00035978,-0.00056337,0.0016
 8704,-0.12529955,-0.22591313,-0.16668296,0.00042020,-0.00121579,0.0092
 0291,0.00847766,0.04953083,0.01496248,0.12703189,0.19559217,-0.0121438
 6,-0.00724391,-0.00145869,0.00062483,0.00520265,0.00013507,-0.20532535
 ,-0.16225917,-0.30020112,-0.00174754,0.00210643,0.00337409,-0.08171693
 ,0.00033960,-0.06279682,0.29742084,0.16955508,0.36443150,-0.00043152,0
 .00897566,-0.00379227,-0.00036366,0.00004420,-0.00591346,-0.00510985,0
 .00600963,-0.00205729,-0.32006028,0.20559661,-0.15473470,0.00323975,-0
 .00189679,0.00510524,0.00136847,-0.00154184,0.00041887,0.41179457,0.01
 227217,0.00692487,0.00556777,-0.00100907,-0.00177484,0.00533164,0.0062
 6112,-0.00680856,0.00467912,0.20555053,-0.21279691,0.12727316,-0.00305
 614,0.00049114,-0.00880055,-0.00222960,0.00124100,-0.00151825,-0.29416
 105,0.24721068,-0.01866931,0.01352245,-0.00606601,0.00179832,0.0005770
 0,-0.01492290,-0.00136619,0.00800761,0.00379968,-0.15984242,0.13109532
 ,-0.22336061,0.00257855,-0.00656025,-0.00151079,-0.00054147,-0.0034735
 9,-0.00195988,0.16018724,-0.13177961,0.19296192,-0.00098744,0.01091611
 ,0.00684727,-0.00053774,-0.00160467,0.00612309,-0.00216524,-0.00164041
 ,-0.00258187,-0.32412212,0.17166267,0.18716693,0.00085928,0.00068937,0
 .00273115,0.00117733,0.00089109,0.00100184,-0.09119661,0.07777872,0.01
 479583,0.41772974,0.00830164,0.00772346,-0.00302850,-0.00053521,-0.000
 76146,-0.00262380,0.00087783,0.00046520,0.00235411,0.17214299,-0.16522
 836,-0.11224805,-0.00023050,-0.00070045,-0.00157282,-0.00043267,-0.000
 00444,-0.00047714,0.07927493,-0.03473931,-0.01363360,-0.25798019,0.194
 91418,0.01986491,-0.01479059,-0.00868267,-0.00137908,0.00305718,-0.015
 37437,-0.00126777,0.00942815,0.00145266,0.19329175,-0.11538894,-0.2635
 5112,0.00187907,-0.00390858,0.00036482,-0.00047976,-0.00351873,-0.0010
 9417,-0.00236246,-0.00178961,0.04963742,-0.20824686,0.12615917,0.23580
 002,-0.02101052,0.00448582,-0.00089443,0.00043064,0.00015878,0.0002567
 6,0.00816808,-0.00072468,-0.00072338,-0.00159863,0.00154303,0.00109577
 ,-0.00105774,-0.00048207,0.00039966,-0.00056713,0.00225103,0.00147226,
 0.00076832,-0.00060836,-0.00011654,0.00010979,-0.00132456,0.00024673,0
 .01624598,0.00526800,-0.06878674,-0.00573733,0.00000516,-0.00017776,-0
 .00159794,-0.00178374,0.02234892,0.00100376,-0.00097266,-0.00190042,0.
 00142102,0.00634413,-0.01494823,0.00316293,-0.00401891,-0.01498192,-0.
 00692454,-0.00005791,0.00042997,0.00052191,0.00045292,-0.00260518,0.00
 204238,-0.00650567,0.08445274,0.00004836,-0.00639452,-0.01795203,0.000
 62031,-0.00425704,-0.00136823,-0.00092405,0.00179888,0.00814116,0.0038
 7627,0.00148260,-0.00477051,0.00177986,-0.00330701,-0.00069890,0.00016
 967,-0.00043499,-0.00145605,-0.00102370,-0.00006096,0.00084180,-0.0020
 4581,0.00524124,0.00043495,-0.00208690,0.00645860,0.01567520,-0.088600
 46,-0.00620869,-0.00172089,0.00077542,0.00038939,-0.00143663,-0.000038
 85,0.00016709,0.00028529,-0.00006651,-0.00046231,0.00016202,-0.0001863
 6,-0.00203343,0.00019249,0.00004814,-0.00074777,0.00001324,-0.00013762
 ,-0.00069460,0.00177768,0.00003379,-0.00018539,0.00062007,-0.00248249,
 0.00268539,-0.00014972,0.10067901,-0.00541059,-0.01512004,0.00010492,0
 .00074861,0.00102054,0.00039170,-0.00101029,-0.00575076,0.00291203,0.0
 0132888,-0.00135646,0.00122672,-0.00513153,-0.00023254,-0.00123127,-0.
 00015849,0.00086255,-0.00089862,-0.00166761,-0.00051980,0.00167208,-0.
 00052283,0.00047585,-0.00018399,0.00510455,-0.00159412,-0.00009634,0.0
 0850742,0.01882279,-0.00227195,-0.00013082,-0.01454847,-0.00430024,0.0
 0035871,-0.00004689,-0.00160432,-0.00026919,-0.00056903,0.00079921,0.0
 0402508,-0.00461701,0.00073079,0.00095707,-0.00020073,0.00048566,0.000
 01017,0.00033481,0.00471219,0.00005476,-0.00021221,0.00038854,-0.00105
 186,0.00055694,0.00059735,-0.00009729,0.00075362,0.00023570,-0.0038611
 7,0.01498234,-0.08823226,-0.00701278,-0.00085321,0.00075848,0.00003565
 ,0.00223744,-0.00163129,0.00143104,0.00079686,-0.00090439,-0.00013114,
 -0.00113822,0.00001820,0.00052634,0.00010987,-0.00110651,0.00151663,-0
 .00001820,0.00012844,-0.00010371,-0.00060170,-0.00090077,0.00009113,-0
 .00216661,0.00099371,-0.00141672,-0.00026429,-0.01002407,-0.00178812,0
 .00022706,0.10090047,-0.00867035,-0.01497836,0.00017080,-0.00084593,-0
 .00026827,0.00011301,0.00256009,-0.00464243,-0.00426434,0.00194430,-0.
 00026102,-0.00034766,-0.00007291,0.00063430,0.00105502,0.00476671,0.00
 032385,0.00211788,-0.00057583,0.00034175,0.00005067,-0.00064278,0.0004
 6051,-0.00110644,-0.00389787,-0.00223725,-0.00043046,-0.00141711,0.003
 39200,0.00000454,0.00685169,0.01723492,-0.00011981,0.00033187,-0.01398
 125,0.00459190,0.00016134,-0.00271935,-0.00112412,-0.00152514,-0.00173
 481,-0.00067142,-0.00333297,-0.00639600,0.00055424,0.00018781,0.000756
 65,0.00204454,-0.00009410,0.00069124,-0.00053967,0.00104251,0.00079158
 ,-0.00618011,0.00088126,0.00045551,-0.00024728,-0.00025351,0.00039898,
 0.00002074,-0.00003605,0.00356662,0.00167098,0.00263698,0.01817082\\0.
 00006449,0.00002389,-0.00000970,0.00000230,-0.00007714,-0.00001833,0.0
 0001466,-0.00006025,0.00004440,-0.00004680,0.00003717,0.00000462,0.000
 04660,0.00003014,0.00006654,0.00002083,-0.00002661,0.00003170,0.000003
 13,0.00008348,0.00001912,0.00001411,0.00003848,-0.00003008,-0.00004721
 ,-0.00001436,-0.00006717,-0.00005976,0.00001242,-0.00003232,-0.0000123
 4,-0.00004720,-0.00000878\\\@


 LIFE CAN ONLY BE UNDERSTOOD BACKWARD, BUT MUST
 BE LIVED FORWARD. -- KIRKEGAARD
 Job cpu time:       0 days  0 hours 12 minutes 50.8 seconds.
 File lengths (MBytes):  RWF=    102 Int=      0 D2E=      0 Chk=      7 Scr=      1
 Normal termination of Gaussian 09 at Wed Aug 18 07:51:56 2021.
