 Entering Gaussian System, Link 0=g09
 Input=/home/nqtcm/milena/42_D2O.com
 Output=/home/nqtcm/milena/42_D2O.log
 Initial command:
 /scr/programas/g09/l1.exe "/scr/nqtcm/Gau-31396.inp" -scrdir="/scr/nqtcm/"
 Entering Link 1 = /scr/programas/g09/l1.exe PID=     31398.
  
 Copyright (c) 1988,1990,1992,1993,1995,1998,2003,2009,2013,
            Gaussian, Inc.  All Rights Reserved.
  
 This is part of the Gaussian(R) 09 program.  It is based on
 the Gaussian(R) 03 system (copyright 2003, Gaussian, Inc.),
 the Gaussian(R) 98 system (copyright 1998, Gaussian, Inc.),
 the Gaussian(R) 94 system (copyright 1995, Gaussian, Inc.),
 the Gaussian 92(TM) system (copyright 1992, Gaussian, Inc.),
 the Gaussian 90(TM) system (copyright 1990, Gaussian, Inc.),
 the Gaussian 88(TM) system (copyright 1988, Gaussian, Inc.),
 the Gaussian 86(TM) system (copyright 1986, Carnegie Mellon
 University), and the Gaussian 82(TM) system (copyright 1983,
 Carnegie Mellon University). Gaussian is a federally registered
 trademark of Gaussian, Inc.
  
 This software contains proprietary and confidential information,
 including trade secrets, belonging to Gaussian, Inc.
  
 This software is provided under written license and may be
 used, copied, transmitted, or stored only in accord with that
 written license.
  
 The following legend is applicable only to US Government
 contracts under FAR:
  
                    RESTRICTED RIGHTS LEGEND
  
 Use, reproduction and disclosure by the US Government is
 subject to restrictions as set forth in subparagraphs (a)
 and (c) of the Commercial Computer Software - Restricted
 Rights clause in FAR 52.227-19.
  
 Gaussian, Inc.
 340 Quinnipiac St., Bldg. 40, Wallingford CT 06492
  
  
 ---------------------------------------------------------------
 Warning -- This program may not be used in any manner that
 competes with the business of Gaussian, Inc. or will provide
 assistance to any competitor of Gaussian, Inc.  The licensee
 of this program is prohibited from giving any competitor of
 Gaussian, Inc. access to this program.  By using this program,
 the user acknowledges that Gaussian, Inc. is engaged in the
 business of creating and licensing software in the field of
 computational chemistry and represents and warrants to the
 licensee that it is not a competitor of Gaussian, Inc. and that
 it will not use this program in any manner prohibited above.
 ---------------------------------------------------------------
  

 Cite this work as:
 Gaussian 09, Revision D.01,
 M. J. Frisch, G. W. Trucks, H. B. Schlegel, G. E. Scuseria, 
 M. A. Robb, J. R. Cheeseman, G. Scalmani, V. Barone, B. Mennucci, 
 G. A. Petersson, H. Nakatsuji, M. Caricato, X. Li, H. P. Hratchian, 
 A. F. Izmaylov, J. Bloino, G. Zheng, J. L. Sonnenberg, M. Hada, 
 M. Ehara, K. Toyota, R. Fukuda, J. Hasegawa, M. Ishida, T. Nakajima, 
 Y. Honda, O. Kitao, H. Nakai, T. Vreven, J. A. Montgomery, Jr., 
 J. E. Peralta, F. Ogliaro, M. Bearpark, J. J. Heyd, E. Brothers, 
 K. N. Kudin, V. N. Staroverov, T. Keith, R. Kobayashi, J. Normand, 
 K. Raghavachari, A. Rendell, J. C. Burant, S. S. Iyengar, J. Tomasi, 
 M. Cossi, N. Rega, J. M. Millam, M. Klene, J. E. Knox, J. B. Cross, 
 V. Bakken, C. Adamo, J. Jaramillo, R. Gomperts, R. E. Stratmann, 
 O. Yazyev, A. J. Austin, R. Cammi, C. Pomelli, J. W. Ochterski, 
 R. L. Martin, K. Morokuma, V. G. Zakrzewski, G. A. Voth, 
 P. Salvador, J. J. Dannenberg, S. Dapprich, A. D. Daniels, 
 O. Farkas, J. B. Foresman, J. V. Ortiz, J. Cioslowski, 
 and D. J. Fox, Gaussian, Inc., Wallingford CT, 2013.
 
 ******************************************
 Gaussian 09:  EM64L-G09RevD.01 24-Apr-2013
                10-May-2022 
 ******************************************
 %mem=7gb
 %nproc=4
 Will use up to    4 processors via shared memory.
 -----------------------------------------------------------------
 #b3lyp/gen pseudo=read opt=(loose,cartesian) scrf=(solvent=water)
 -----------------------------------------------------------------
 1/7=-1,10=7,14=-1,18=10,26=3,38=1/1,3;
 2/12=2,17=6,18=5,29=2,40=1/2;
 3/5=7,11=2,16=1,17=8,25=1,30=1,70=2201,71=1,72=1,74=-5/1,2,3;
 4//1;
 5/5=2,38=5,53=1/2;
 6/7=2,8=2,9=2,10=2,28=1/1;
 7/7=1,29=1/1,2,3,16;
 1/7=-1,10=7,14=-1,18=10,26=3/3(2);
 2/29=1/2;
 99/12=1/99;
 2/29=1/2;
 3/5=7,6=1,11=2,16=1,17=8,25=1,30=1,70=2205,71=1,72=1,74=-5,82=7/1,2,3;
 4/5=5,16=3,69=1/1;
 5/5=2,38=5,53=1/2;
 7/7=1/1,2,3,16;
 1/7=-1,14=-1,18=10,26=3/3(-5);
 2/29=1/2;
 6/7=2,8=2,9=2,10=2,19=2,28=1/1;
 99/9=1,12=1/99;
 ------------
 Estrutura 42
 ------------
 Symbolic Z-matrix:
 Charge = -2 Multiplicity = 1
 Pt                    0.14319  -0.08305  -0.01988 
 N                     2.25023  -0.1575   -0.09749 
 N                     0.26056   1.98206   0.31463 
 O                     2.82573   0.73523  -0.696 
 O                     2.82805  -1.07376   0.45535 
 O                    -0.47701   2.726    -0.30553 
 O                     1.08214   2.38016   1.12364 
 Br                   -2.4135    0.00716   0.09116 
 Cl                    0.10643   0.27399  -2.36628 
 Cl                    0.02656  -2.45532  -0.41547 
 Cl                    0.19974  -0.44727   2.3241 
 

 GradGradGradGradGradGradGradGradGradGradGradGradGradGradGradGradGradGrad
 Berny optimization.
 Initialization pass.
 No Z-matrix variables, so optimization will use Cartesian coordinates.
 Trust Radius=3.00D-01 FncErr=1.00D-07 GrdErr=1.00D-06
 Number of steps in this run=     43 maximum allowed number of steps=    100.
 GradGradGradGradGradGradGradGradGradGradGradGradGradGradGradGradGradGrad

 ---------------------------------------------------------------------------------------------------
                            Z-MATRIX (ANGSTROMS AND DEGREES)
   CD    Cent   Atom    N1       Length/X        N2       Alpha/Y        N3        Beta/Z          J
 ---------------------------------------------------------------------------------------------------
      1      1  Pt       0   0.143194         -0.083048         -0.019876
      2      2  N        0   2.250230         -0.157497         -0.097487
      3      3  N        0   0.260561          1.982064          0.314626
      4      4  O        0   2.825725          0.735234         -0.696002
      5      5  O        0   2.828045         -1.073758          0.455350
      6      6  O        0  -0.477010          2.726001         -0.305529
      7      7  O        0   1.082142          2.380163          1.123635
      8      8  Br       0  -2.413498          0.007164          0.091163
      9      9  Cl       0   0.106432          0.273994         -2.366277
     10     10  Cl       0   0.026563         -2.455317         -0.415467
     11     11  Cl       0   0.199743         -0.447268          2.324096
 ---------------------------------------------------------------------------------------------------
                         Z-Matrix orientation:                         
 ---------------------------------------------------------------------
 Center     Atomic      Atomic             Coordinates (Angstroms)
 Number     Number       Type             X           Y           Z
 ---------------------------------------------------------------------
      1         78           0        0.143194   -0.083048   -0.019876
      2          7           0        2.250230   -0.157497   -0.097487
      3          7           0        0.260561    1.982064    0.314626
      4          8           0        2.825725    0.735234   -0.696002
      5          8           0        2.828045   -1.073758    0.455350
      6          8           0       -0.477010    2.726001   -0.305529
      7          8           0        1.082142    2.380163    1.123635
      8         35           0       -2.413498    0.007164    0.091163
      9         17           0        0.106432    0.273994   -2.366277
     10         17           0        0.026563   -2.455317   -0.415467
     11         17           0        0.199743   -0.447268    2.324096
 ---------------------------------------------------------------------
                    Distance matrix (angstroms):
                    1          2          3          4          5
     1  Pt   0.000000
     2  N    2.109779   0.000000
     3  N    2.095317   2.950651   0.000000
     4  O    2.884910   1.219173   3.025892   0.000000
     5  O    2.900995   1.216155   3.993723   2.144311   0.000000
     6  O    2.890849   3.974378   1.217393   3.876039   5.093181
     7  O    2.873439   3.048817   1.219825   3.009477   3.927385
     8  Br   2.560692   4.670445   3.331780   5.347819   5.364215
     9  Cl   2.373695   3.151105   3.182530   3.224456   4.145503
    10  Cl   2.407853   3.213376   4.503126   4.253660   3.242735
    11  Cl   2.372774   3.186303   3.153303   4.173138   3.285220
                    6          7          8          9         10
     6  O    0.000000
     7  O    2.143145   0.000000
     8  Br   3.361462   4.349324   0.000000
     9  Cl   3.255676   4.191353   3.529909   0.000000
    10  Cl   5.206892   5.183141   3.503482   3.355768   0.000000
    11  Cl   4.176429   3.195951   3.467207   4.746422   3.401097
                   11
    11  Cl   0.000000
 Stoichiometry    BrCl3N2O4Pt(2-)
 Framework group  C1[X(BrCl3N2O4Pt)]
 Deg. of freedom    27
 Full point group                 C1      NOp   1
 Largest Abelian subgroup         C1      NOp   1
 Largest concise Abelian subgroup C1      NOp   1
                         Standard orientation:                         
 ---------------------------------------------------------------------
 Center     Atomic      Atomic             Coordinates (Angstroms)
 Number     Number       Type             X           Y           Z
 ---------------------------------------------------------------------
      1         78           0       -0.143194   -0.083048    0.019876
      2          7           0       -2.250230   -0.157498    0.097487
      3          7           0       -0.260562    1.982064   -0.314626
      4          8           0       -2.825725    0.735233    0.696002
      5          8           0       -2.828045   -1.073759   -0.455350
      6          8           0        0.477009    2.726001    0.305529
      7          8           0       -1.082143    2.380162   -1.123635
      8         35           0        2.413498    0.007165   -0.091163
      9         17           0       -0.106432    0.273994    2.366277
     10         17           0       -0.026562   -2.455317    0.415467
     11         17           0       -0.199743   -0.447268   -2.324096
 ---------------------------------------------------------------------
 Rotational constants (GHZ):      0.5380136      0.4073743      0.3804126
 General basis read from cards:  (5D, 7F)
 ======================================================================================================
                                       Pseudopotential Parameters
 ======================================================================================================
  Center     Atomic      Valence      Angular      Power
  Number     Number     Electrons     Momentum     of R      Exponent        Coefficient   SO-Coeffient
 ======================================================================================================
    1         78           18
                                      G and up 
                                                     1      728.9394056       -0.16192680    0.00000000
                                                     2      320.6567800    -1320.28738520    0.00000000
                                                     2       52.8680174     -298.31781350    0.00000000
                                                     2       12.0280128      -87.58370650    0.00000000
                                                     2        3.5238913       -8.14932740    0.00000000
                                      S - G
                                                     0      409.4437358        2.73342180    0.00000000
                                                     1      274.5419231       59.70243290    0.00000000
                                                     2      127.5658570      891.45895500    0.00000000
                                                     2       32.9036631      368.44676560    0.00000000
                                                     2        5.0593880      238.02630900    0.00000000
                                                     2        4.1506556     -107.05564540    0.00000000
                                      P - G
                                                     0      466.1728892        1.88785680    0.00000000
                                                     1      120.7888259       76.01386290    0.00000000
                                                     2       36.4118791      343.55111160    0.00000000
                                                     2        5.6985408      119.49117860    0.00000000
                                      D - G
                                                     0      249.5650763        2.93436780    0.00000000
                                                     1      126.6678585       59.33065710    0.00000000
                                                     2       63.1430586      452.44451940    0.00000000
                                                     2       17.9059470      210.47694790    0.00000000
                                                     2        4.2239373       58.62541120    0.00000000
                                      F - G
                                                     0      121.8158799        3.95342530    0.00000000
                                                     1       60.8757030       53.85551820    0.00000000
                                                     2       31.4767147      247.43051330    0.00000000
                                                     2        9.8811751      127.81879760    0.00000000
                                                     2        2.7319874       15.37720460    0.00000000
    2          7
                                   No pseudopotential on this center.
    3          7
                                   No pseudopotential on this center.
    4          8
                                   No pseudopotential on this center.
    5          8
                                   No pseudopotential on this center.
    6          8
                                   No pseudopotential on this center.
    7          8
                                   No pseudopotential on this center.
    8         35
                                   No pseudopotential on this center.
    9         17
                                   No pseudopotential on this center.
   10         17
                                   No pseudopotential on this center.
   11         17
                                   No pseudopotential on this center.
 ======================================================================================================
 There are   206 symmetry adapted cartesian basis functions of A   symmetry.
 There are   192 symmetry adapted basis functions of A   symmetry.
   192 basis functions,   384 primitive gaussians,   206 cartesian basis functions
    76 alpha electrons       76 beta electrons
       nuclear repulsion energy      1640.7854339988 Hartrees.
 NAtoms=   11 NActive=   11 NUniq=   11 SFac= 1.00D+00 NAtFMM=   60 NAOKFM=F Big=F
 Integral buffers will be    131072 words long.
 Raffenetti 2 integral format.
 Two-electron integral symmetry is turned on.
 ------------------------------------------------------------------------------
 Polarizable Continuum Model (PCM)
 =================================
 Model                : PCM (using non-symmetric T matrix).
 Atomic radii         : UFF (Universal Force Field).
 Polarization charges : Total charges.
 Charge compensation  : None.
 Solution method      : On-the-fly selection.
 Cavity type          : Scaled VdW (van der Waals Surface) (Alpha=1.100).
 Cavity algorithm     : GePol (No added spheres)
                        Default sphere list used, NSphG=   11.
                        Lebedev-Laikov grids with approx.  5.0 points / Ang**2.
                        Smoothing algorithm: Karplus/York (Gamma=1.0000).
                        Polarization charges: spherical gaussians, with
                                              point-specific exponents (IZeta= 3).
                        Self-potential: point-specific (ISelfS= 7).
                        Self-field    : sphere-specific E.n sum rule (ISelfD= 2).
 1st derivatives      : Analytical E(r).r(x)/FMM algorithm (CHGder, D1EAlg=3).
                        Cavity 1st derivative terms included.
 Solvent              : Water, Eps=  78.355300 Eps(inf)=   1.777849
 ------------------------------------------------------------------------------
 Spheres list:
 ISph  on   Nord     Re0    Alpha      Xe            Ye            Ze
    1  Pt      1    1.3770  1.100     -0.143194     -0.083048      0.019876
    2   N      2    1.8300  1.100     -2.250230     -0.157498      0.097487
    3   N      3    1.8300  1.100     -0.260562      1.982064     -0.314626
    4   O      4    1.7500  1.100     -2.825725      0.735233      0.696002
    5   O      5    1.7500  1.100     -2.828045     -1.073759     -0.455350
    6   O      6    1.7500  1.100      0.477009      2.726001      0.305529
    7   O      7    1.7500  1.100     -1.082143      2.380162     -1.123635
    8  Br      8    2.0945  1.100      2.413498      0.007165     -0.091163
    9  Cl      9    1.9735  1.100     -0.106432      0.273994      2.366277
   10  Cl     10    1.9735  1.100     -0.026562     -2.455317      0.415467
   11  Cl     11    1.9735  1.100     -0.199743     -0.447268     -2.324096
 ------------------------------------------------------------------------------
 One-electron integrals computed using PRISM.
   1 Symmetry operations used in ECPInt.
 ECPInt:  NShTT=    3240 NPrTT=   15076 LenC2=    3010 LenP2D=    9874.
 LDataN:  DoStor=T MaxTD1= 6 Len=  172
 NBasis=   192 RedAO= T EigKep=  5.48D-03  NBF=   192
 NBsUse=   192 1.00D-06 EigRej= -1.00D+00 NBFU=   192
 Defaulting to unpruned grid for atomic number  78.
 ExpMin= 2.90D-02 ExpMax= 1.13D+05 ExpMxC= 1.70D+04 IAcc=3 IRadAn=         5 AccDes= 0.00D+00
 Harris functional with IExCor=  402 and IRadAn=       5 diagonalized for initial guess.
 HarFok:  IExCor=  402 AccDes= 0.00D+00 IRadAn=         5 IDoV= 1 UseB2=F ITyADJ=14
 ICtDFT=  3500011 ScaDFX=  1.000000  1.000000  1.000000  1.000000
 Defaulting to unpruned grid for atomic number  78.
 Defaulting to unpruned grid for atomic number  78.
 Defaulting to unpruned grid for atomic number  78.
 Defaulting to unpruned grid for atomic number  78.
 FoFCou: FMM=F IPFlag=           0 FMFlag=      100000 FMFlg1=           0
         NFxFlg=           0 DoJE=T BraDBF=F KetDBF=T FulRan=T
         wScrn=  0.000000 ICntrl=     500 IOpCl=  0 I1Cent=   200000004 NGrid=           0
         NMat0=    1 NMatS0=      1 NMatT0=    0 NMatD0=    1 NMtDS0=    0 NMtDT0=    0
 Petite list used in FoFCou.
 Keep R1 ints in memory in canonical form, NReq=177680078.
 Requested convergence on RMS density matrix=1.00D-08 within 128 cycles.
 Requested convergence on MAX density matrix=1.00D-06.
 Requested convergence on             energy=1.00D-06.
 No special actions if energy rises.
 Defaulting to unpruned grid for atomic number  78.
 Defaulting to unpruned grid for atomic number  78.
 Defaulting to unpruned grid for atomic number  78.
 Defaulting to unpruned grid for atomic number  78.
 Inv3:  Mode=1 IEnd=     7422987.
 Iteration    1 A*A^-1 deviation from unit magnitude is 6.00D-15 for     54.
 Iteration    1 A*A^-1 deviation from orthogonality  is 4.34D-15 for    649    118.
 Iteration    1 A^-1*A deviation from unit magnitude is 6.55D-15 for   1219.
 Iteration    1 A^-1*A deviation from orthogonality  is 1.91D-13 for   1014    691.
 EnCoef did   100 forward-backward iterations
 EnCoef did     1 forward-backward iterations
 EnCoef did     3 forward-backward iterations
 Error on total polarization charges =  0.01121
 SCF Done:  E(RB3LYP) =  -4483.60191761     A.U. after   18 cycles
            NFock= 18  Conv=0.64D-08     -V/T= 2.0206

 **********************************************************************

            Population analysis using the SCF density.

 **********************************************************************

 Orbital symmetries:
       Occupied  (A) (A) (A) (A) (A) (A) (A) (A) (A) (A) (A) (A)
                 (A) (A) (A) (A) (A) (A) (A) (A) (A) (A) (A) (A)
                 (A) (A) (A) (A) (A) (A) (A) (A) (A) (A) (A) (A)
                 (A) (A) (A) (A) (A) (A) (A) (A) (A) (A) (A) (A)
                 (A) (A) (A) (A) (A) (A) (A) (A) (A) (A) (A) (A)
                 (A) (A) (A) (A) (A) (A) (A) (A) (A) (A) (A) (A)
                 (A) (A) (A) (A)
       Virtual   (A) (A) (A) (A) (A) (A) (A) (A) (A) (A) (A) (A)
                 (A) (A) (A) (A) (A) (A) (A) (A) (A) (A) (A) (A)
                 (A) (A) (A) (A) (A) (A) (A) (A) (A) (A) (A) (A)
                 (A) (A) (A) (A) (A) (A) (A) (A) (A) (A) (A) (A)
                 (A) (A) (A) (A) (A) (A) (A) (A) (A) (A) (A) (A)
                 (A) (A) (A) (A) (A) (A) (A) (A) (A) (A) (A) (A)
                 (A) (A) (A) (A) (A) (A) (A) (A) (A) (A) (A) (A)
                 (A) (A) (A) (A) (A) (A) (A) (A) (A) (A) (A) (A)
                 (A) (A) (A) (A) (A) (A) (A) (A) (A) (A) (A) (A)
                 (A) (A) (A) (A) (A) (A) (A) (A)
 The electronic state is 1-A.
 Alpha  occ. eigenvalues -- -482.73568-101.45117-101.45106-101.43673 -62.41697
 Alpha  occ. eigenvalues --  -56.24865 -56.24614 -56.24610 -19.15820 -19.15731
 Alpha  occ. eigenvalues --  -19.15560 -19.15490 -14.52838 -14.52723  -9.40351
 Alpha  occ. eigenvalues --   -9.40338  -9.38911  -8.63417  -7.17159  -7.17145
 Alpha  occ. eigenvalues --   -7.16325  -7.16324  -7.16313  -7.16312  -7.15648
 Alpha  occ. eigenvalues --   -7.14929  -7.14919  -6.46502  -6.45610  -6.45595
 Alpha  occ. eigenvalues --   -4.01604  -2.57967  -2.57722  -2.57710  -2.57011
 Alpha  occ. eigenvalues --   -2.57010  -2.22744  -2.22708  -2.22569  -1.20176
 Alpha  occ. eigenvalues --   -1.19859  -1.03152  -1.02810  -0.76429  -0.74945
 Alpha  occ. eigenvalues --   -0.74066  -0.70929  -0.63278  -0.62717  -0.53551
 Alpha  occ. eigenvalues --   -0.52696  -0.51709  -0.50673  -0.49934  -0.49666
 Alpha  occ. eigenvalues --   -0.40775  -0.37977  -0.37672  -0.36518  -0.36348
 Alpha  occ. eigenvalues --   -0.34735  -0.31671  -0.31261  -0.30440  -0.29023
 Alpha  occ. eigenvalues --   -0.28832  -0.27600  -0.27453  -0.25741  -0.25581
 Alpha  occ. eigenvalues --   -0.25473  -0.25359  -0.25045  -0.24667  -0.24217
 Alpha  occ. eigenvalues --   -0.24040
 Alpha virt. eigenvalues --   -0.09957  -0.08816  -0.04754  -0.04380   0.05625
 Alpha virt. eigenvalues --    0.05913   0.06347   0.10939   0.23709   0.23982
 Alpha virt. eigenvalues --    0.25692   0.29746   0.32000   0.36854   0.37790
 Alpha virt. eigenvalues --    0.38752   0.41065   0.42333   0.43984   0.47488
 Alpha virt. eigenvalues --    0.52107   0.55649   0.58558   0.60333   0.61166
 Alpha virt. eigenvalues --    0.61814   0.65124   0.65653   0.68892   0.69670
 Alpha virt. eigenvalues --    0.70392   0.71387   0.72177   0.74391   0.75414
 Alpha virt. eigenvalues --    0.76730   0.79464   0.80453   0.80613   0.82184
 Alpha virt. eigenvalues --    0.82418   0.82607   0.82998   0.83549   0.83916
 Alpha virt. eigenvalues --    0.86679   0.87507   0.89582   0.90166   0.91940
 Alpha virt. eigenvalues --    0.92612   0.93520   0.94661   0.95490   0.96118
 Alpha virt. eigenvalues --    0.98023   0.99328   1.00496   1.03870   1.04881
 Alpha virt. eigenvalues --    1.05496   1.06422   1.07564   1.08401   1.09560
 Alpha virt. eigenvalues --    1.10819   1.12743   1.13739   1.16646   1.18025
 Alpha virt. eigenvalues --    1.19026   1.27368   1.31420   1.35124   1.37587
 Alpha virt. eigenvalues --    1.38930   1.40186   1.43954   1.46204   1.48039
 Alpha virt. eigenvalues --    1.81709   1.86304   1.94856   1.96222   2.03598
 Alpha virt. eigenvalues --    2.04951   2.39454   2.40577   2.42383   2.44094
 Alpha virt. eigenvalues --    2.61394   2.62182   2.63161   2.63497   2.65192
 Alpha virt. eigenvalues --    2.66440   2.71369   2.71488   2.99207   2.99966
 Alpha virt. eigenvalues --    3.06136   3.06423   3.29610   3.30026   3.34295
 Alpha virt. eigenvalues --    3.39639   3.46495   3.48163   3.56099   3.56811
 Alpha virt. eigenvalues --    3.70791   3.71170   3.72082   3.76086   3.76560
 Alpha virt. eigenvalues --    7.21674
          Condensed to atoms (all electrons):
               1          2          3          4          5          6
     1  Pt  17.095498   0.091021   0.106527  -0.023583  -0.017214  -0.022348
     2  N    0.091021   6.247787  -0.010726   0.270577   0.282161  -0.000019
     3  N    0.106527  -0.010726   6.249383  -0.000616  -0.000009   0.281690
     4  O   -0.023583   0.270577  -0.000616   8.120972  -0.100634  -0.000071
     5  O   -0.017214   0.282161  -0.000009  -0.100634   8.095884   0.000000
     6  O   -0.022348  -0.000019   0.281690  -0.000071   0.000000   8.106626
     7  O   -0.024175  -0.000377   0.266836  -0.000289  -0.000046  -0.101171
     8  Br   0.232028  -0.002266  -0.008975   0.000070   0.000066  -0.000097
     9  Cl   0.247051  -0.012540  -0.010257  -0.000030  -0.000076   0.000067
    10  Cl   0.255104  -0.008348  -0.001373   0.000009  -0.000364   0.000022
    11  Cl   0.246410  -0.010484  -0.012134  -0.000026   0.000071  -0.000071
               7          8          9         10         11
     1  Pt  -0.024175   0.232028   0.247051   0.255104   0.246410
     2  N   -0.000377  -0.002266  -0.012540  -0.008348  -0.010484
     3  N    0.266836  -0.008975  -0.010257  -0.001373  -0.012134
     4  O   -0.000289   0.000070  -0.000030   0.000009  -0.000026
     5  O   -0.000046   0.000066  -0.000076  -0.000364   0.000071
     6  O   -0.101171  -0.000097   0.000067   0.000022  -0.000071
     7  O    8.129271  -0.000002  -0.000041   0.000025  -0.000246
     8  Br  -0.000002  35.070155  -0.010950  -0.010035  -0.014453
     9  Cl  -0.000041  -0.010950  17.046933  -0.011563  -0.000891
    10  Cl   0.000025  -0.010035  -0.011563  17.081396  -0.009241
    11  Cl  -0.000246  -0.014453  -0.000891  -0.009241  17.048111
 Mulliken charges:
               1
     1  Pt  -0.186318
     2  N    0.153214
     3  N    0.139655
     4  O   -0.266378
     5  O   -0.259839
     6  O   -0.264628
     7  O   -0.269784
     8  Br  -0.255541
     9  Cl  -0.247704
    10  Cl  -0.295633
    11  Cl  -0.247047
 Sum of Mulliken charges =  -2.00000
 Mulliken charges with hydrogens summed into heavy atoms:
               1
     1  Pt  -0.186318
     2  N    0.153214
     3  N    0.139655
     4  O   -0.266378
     5  O   -0.259839
     6  O   -0.264628
     7  O   -0.269784
     8  Br  -0.255541
     9  Cl  -0.247704
    10  Cl  -0.295633
    11  Cl  -0.247047
 Electronic spatial extent (au):  <R**2>=           3322.3621
 Charge=             -2.0000 electrons
 Dipole moment (field-independent basis, Debye):
    X=              1.1642    Y=              0.6355    Z=             -0.1474  Tot=              1.3345
 Quadrupole moment (field-independent basis, Debye-Ang):
   XX=           -146.0891   YY=           -145.9168   ZZ=           -138.3393
   XY=             -0.0172   XZ=             -1.9531   YZ=             -1.2795
 Traceless Quadrupole moment (field-independent basis, Debye-Ang):
   XX=             -2.6407   YY=             -2.4684   ZZ=              5.1091
   XY=             -0.0172   XZ=             -1.9531   YZ=             -1.2795
 Octapole moment (field-independent basis, Debye-Ang**2):
  XXX=             55.9981  YYY=             -8.2077  ZZZ=             -1.3333  XYY=             17.9285
  XXY=             -0.2725  XXZ=              0.1655  XZZ=             14.6794  YZZ=             -0.8290
  YYZ=              0.5138  XYZ=             -0.0276
 Hexadecapole moment (field-independent basis, Debye-Ang**3):
 XXXX=          -1738.9471 YYYY=          -1416.1996 ZZZZ=          -1156.6819 XXXY=             -3.0288
 XXXZ=              1.2412 YYYX=             -1.3124 YYYZ=             12.9183 ZZZX=             -7.1478
 ZZZY=             -5.9302 XXYY=           -502.6728 XXZZ=           -453.6128 YYZZ=           -407.6314
 XXYZ=            -13.0270 YYXZ=            -18.5100 ZZXY=              7.1403
 N-N= 1.640785433999D+03 E-N=-1.397526714797D+04  KE= 4.393227739830D+03
   1 Symmetry operations used in ECPInt.
 ECPInt:  NShTT=    3240 NPrTT=   15076 LenC2=    3010 LenP2D=    9874.
 LDataN:  DoStor=T MaxTD1= 7 Len=  274
 D1PCM: PCM CHGder 1st derivatives, ID1Alg=3 FixD1E=F DoIter=F DoCFld=F I1PDM=0.
 Calling FoFJK, ICntrl=      2127 FMM=F ISym2X=0 I1Cent= 0 IOpClX= 0 NMat=1 NMatS=1 NMatT=0.
 Defaulting to unpruned grid for atomic number  78.
 Defaulting to unpruned grid for atomic number  78.
 Defaulting to unpruned grid for atomic number  78.
 Defaulting to unpruned grid for atomic number  78.
 ***** Axes restored to original set *****
 -------------------------------------------------------------------
 Center     Atomic                   Forces (Hartrees/Bohr)
 Number     Number              X              Y              Z
 -------------------------------------------------------------------
      1       78           0.005105395    0.005300062    0.000645072
      2        7           0.006620163   -0.000671699    0.000227497
      3        7          -0.000101241    0.006683234    0.000657870
      4        8          -0.003226071    0.000012935    0.000745798
      5        8          -0.002882869    0.001134748   -0.000603306
      6        8           0.000810769   -0.002565692    0.000336479
      7        8          -0.000013607   -0.002599967   -0.001194328
      8       35          -0.007905972    0.000819382    0.000667026
      9       17           0.000627987    0.002264785   -0.010028326
     10       17           0.000027333   -0.009652796   -0.001631931
     11       17           0.000938113   -0.000724992    0.010178150
 -------------------------------------------------------------------
 Cartesian Forces:  Max     0.010178150 RMS     0.004086299

 GradGradGradGradGradGradGradGradGradGradGradGradGradGradGradGradGradGrad
 Berny optimization.
 Search for a local minimum.
 Step number   1 out of a maximum of   43
 All quantities printed in internal units (Hartrees-Bohrs-Radians)
 Second derivative matrix not updated -- first step.
 ITU=  0
     Eigenvalues ---    0.00237   0.00238   0.01172   0.01693   0.02415
     Eigenvalues ---    0.02837   0.04251   0.04521   0.04567   0.04763
     Eigenvalues ---    0.05919   0.08260   0.08641   0.10895   0.11894
     Eigenvalues ---    0.13096   0.13462   0.17057   0.30357   0.30521
     Eigenvalues ---    0.60819   0.62831   0.72011   1.55327   1.55510
     Eigenvalues ---    2.54446   2.55935
 RFO step:  Lambda=-2.58092761D-03 EMin= 2.36608328D-03
 Linear search not attempted -- first point.
 TrRot= -0.003876 -0.000998 -0.000067 -0.871666 -0.000232  0.871481
 Variable       Old X    -DE/DX   Delta X   Delta X   Delta X     New X
                                 (Linear)    (Quad)   (Total)
    X1        0.27060   0.00511   0.00000   0.00096  -0.00294   0.26765
    Y1       -0.15694   0.00530   0.00000  -0.00371  -0.00476  -0.16170
    Z1       -0.03756   0.00065   0.00000  -0.00039  -0.00038  -0.03794
    X2        4.25232   0.00662   0.00000   0.00545   0.00154   4.25386
    Y2       -0.29763  -0.00067   0.00000   0.00994   0.00812  -0.28950
    Z2       -0.18422   0.00023   0.00000   0.00754   0.00816  -0.17607
    X3        0.49239  -0.00010   0.00000   0.01207   0.00880   0.50119
    Y3        3.74556   0.00668   0.00000   0.00636   0.00538   3.75093
    Z3        0.59456   0.00066   0.00000  -0.00449  -0.00515   0.58941
    X4        5.33985  -0.00323   0.00000  -0.01632  -0.01974   5.32010
    Y4        1.38939   0.00001   0.00000   0.05691   0.05470   1.44409
    Z4       -1.31525   0.00075   0.00000   0.06066   0.06114  -1.25412
    X5        5.34423  -0.00288   0.00000  -0.00178  -0.00616   5.33807
    Y5       -2.02911   0.00113   0.00000  -0.01121  -0.01305  -2.04216
    Z5        0.86049  -0.00060   0.00000  -0.02559  -0.02449   0.83599
    X6       -0.90142   0.00081   0.00000  -0.01126  -0.01410  -0.91551
    Y6        5.15140  -0.00257   0.00000  -0.00098  -0.00191   5.14949
    Z6       -0.57737   0.00034   0.00000   0.01896   0.01785  -0.55952
    X7        2.04495  -0.00001   0.00000   0.06571   0.06236   2.10731
    Y7        4.49786  -0.00260   0.00000  -0.00975  -0.01077   4.48709
    Z7        2.12336  -0.00119   0.00000  -0.05366  -0.05421   2.06915
    X8       -4.56085  -0.00791   0.00000  -0.05455  -0.05844  -4.61929
    Y8        0.01354   0.00082   0.00000   0.00848   0.00837   0.02190
    Z8        0.17227   0.00067   0.00000   0.00256   0.00180   0.17407
    X9        0.20113   0.00063   0.00000   0.01988   0.01678   0.21790
    Y9        0.51777   0.00226   0.00000   0.01601   0.01417   0.53195
    Z9       -4.47162  -0.01003   0.00000  -0.05764  -0.05777  -4.52939
   X10        0.05020   0.00003   0.00000   0.01045   0.00582   0.05602
   Y10       -4.63988  -0.00965   0.00000  -0.06536  -0.06651  -4.70639
   Z10       -0.78512  -0.00163   0.00000  -0.00826  -0.00748  -0.79260
   X11        0.37746   0.00094   0.00000   0.01077   0.00608   0.38354
   Y11       -0.84521  -0.00072   0.00000   0.00654   0.00626  -0.83895
   Z11        4.39190   0.01018   0.00000   0.06042   0.06056   4.45246
         Item               Value     Threshold  Converged?
 Maximum Force            0.010178     0.002500     NO 
 RMS     Force            0.004086     0.001667     NO 
 Maximum Displacement     0.066510     0.010000     NO 
 RMS     Displacement     0.030776     0.006667     NO 
 Predicted change in Energy=-1.331038D-03
 GradGradGradGradGradGradGradGradGradGradGradGradGradGradGradGradGradGrad

                          Input orientation:                          
 ---------------------------------------------------------------------
 Center     Atomic      Atomic             Coordinates (Angstroms)
 Number     Number       Type             X           Y           Z
 ---------------------------------------------------------------------
      1         78           0        0.141637   -0.085568   -0.020080
      2          7           0        2.251047   -0.153198   -0.093171
      3          7           0        0.265219    1.984909    0.311902
      4          8           0        2.815277    0.764179   -0.663650
      5          8           0        2.824786   -1.080662    0.442388
      6          8           0       -0.484469    2.724991   -0.296085
      7          8           0        1.115142    2.374464    1.094947
      8         35           0       -2.444424    0.011591    0.092114
      9         17           0        0.115310    0.281493   -2.396848
     10         17           0        0.029644   -2.490512   -0.419427
     11         17           0        0.202959   -0.443954    2.356143
 ---------------------------------------------------------------------
                    Distance matrix (angstroms):
                    1          2          3          4          5
     1  Pt   0.000000
     2  N    2.111760   0.000000
     3  N    2.100561   2.946032   0.000000
     4  O    2.878299   1.218763   2.990767   0.000000
     5  O    2.898858   1.214985   3.995765   2.151011   0.000000
     6  O    2.892650   3.975952   1.216306   3.855933   5.097010
     7  O    2.871019   3.015126   1.219542   2.928505   3.909810
     8  Br   2.590316   4.702014   3.359235   5.366752   5.392614
     9  Cl   2.405090   3.171318   3.203346   3.244500   4.154273
    10  Cl   2.440447   3.241005   4.540896   4.290969   3.247033
    11  Cl   2.403879   3.205985   3.175244   4.171683   3.307844
                    6          7          8          9         10
     6  O    0.000000
     7  O    2.148626   0.000000
     8  Br   3.369668   4.388548   0.000000
     9  Cl   3.277746   4.191995   3.580506   0.000000
    10  Cl   5.242232   5.209571   3.555729   3.406105   0.000000
    11  Cl   4.189162   3.219654   3.513116   4.808833   3.452858
                   11
    11  Cl   0.000000
 Stoichiometry    BrCl3N2O4Pt(2-)
 Framework group  C1[X(BrCl3N2O4Pt)]
 Deg. of freedom    27
 Full point group                 C1      NOp   1
 Largest Abelian subgroup         C1      NOp   1
 Largest concise Abelian subgroup C1      NOp   1
                         Standard orientation:                         
 ---------------------------------------------------------------------
 Center     Atomic      Atomic             Coordinates (Angstroms)
 Number     Number       Type             X           Y           Z
 ---------------------------------------------------------------------
      1         78           0       -0.145154   -0.084595    0.020974
      2          7           0       -2.254202   -0.159791    0.097088
      3          7           0       -0.277223    1.982176   -0.330273
      4          8           0       -2.821401    0.760683    0.659577
      5          8           0       -2.824884   -1.094478   -0.429097
      6          8           0        0.470222    2.730858    0.269895
      7          8           0       -1.129527    2.361036   -1.115973
      8         35           0        2.440381    0.021625   -0.095058
      9         17           0       -0.117661    0.304853    2.394164
     10         17           0       -0.023288   -2.485230    0.442734
     11         17           0       -0.207677   -0.465502   -2.351711
 ---------------------------------------------------------------------
 Rotational constants (GHZ):      0.5294511      0.4008199      0.3751476
 Basis read from rwf:  (5D, 7F)
 Pseudo-potential data read from rwf file.
 There are   206 symmetry adapted cartesian basis functions of A   symmetry.
 There are   192 symmetry adapted basis functions of A   symmetry.
   192 basis functions,   384 primitive gaussians,   206 cartesian basis functions
    76 alpha electrons       76 beta electrons
       nuclear repulsion energy      1628.6726763110 Hartrees.
 NAtoms=   11 NActive=   11 NUniq=   11 SFac= 1.00D+00 NAtFMM=   60 NAOKFM=F Big=F
 Integral buffers will be    131072 words long.
 Raffenetti 2 integral format.
 Two-electron integral symmetry is turned on.
 ------------------------------------------------------------------------------
 Polarizable Continuum Model (PCM)
 =================================
 Model                : PCM (using non-symmetric T matrix).
 Atomic radii         : UFF (Universal Force Field).
 Polarization charges : Total charges.
 Charge compensation  : None.
 Solution method      : On-the-fly selection.
 Cavity type          : Scaled VdW (van der Waals Surface) (Alpha=1.100).
 Cavity algorithm     : GePol (No added spheres)
                        Default sphere list used, NSphG=   11.
                        Lebedev-Laikov grids with approx.  5.0 points / Ang**2.
                        Smoothing algorithm: Karplus/York (Gamma=1.0000).
                        Polarization charges: spherical gaussians, with
                                              point-specific exponents (IZeta= 3).
                        Self-potential: point-specific (ISelfS= 7).
                        Self-field    : sphere-specific E.n sum rule (ISelfD= 2).
 1st derivatives      : Analytical E(r).r(x)/FMM algorithm (CHGder, D1EAlg=3).
                        Cavity 1st derivative terms included.
 Solvent              : Water, Eps=  78.355300 Eps(inf)=   1.777849
 ------------------------------------------------------------------------------
 Spheres list:
 ISph  on   Nord     Re0    Alpha      Xe            Ye            Ze
    1  Pt      1    1.3770  1.100     -0.145154     -0.084595      0.020974
    2   N      2    1.8300  1.100     -2.254202     -0.159791      0.097088
    3   N      3    1.8300  1.100     -0.277223      1.982176     -0.330273
    4   O      4    1.7500  1.100     -2.821401      0.760683      0.659577
    5   O      5    1.7500  1.100     -2.824884     -1.094478     -0.429097
    6   O      6    1.7500  1.100      0.470222      2.730858      0.269895
    7   O      7    1.7500  1.100     -1.129527      2.361036     -1.115973
    8  Br      8    2.0945  1.100      2.440381      0.021625     -0.095058
    9  Cl      9    1.9735  1.100     -0.117661      0.304853      2.394164
   10  Cl     10    1.9735  1.100     -0.023288     -2.485230      0.442734
   11  Cl     11    1.9735  1.100     -0.207677     -0.465502     -2.351711
 ------------------------------------------------------------------------------
 One-electron integrals computed using PRISM.
   1 Symmetry operations used in ECPInt.
 ECPInt:  NShTT=    3240 NPrTT=   15076 LenC2=    3006 LenP2D=    9839.
 LDataN:  DoStor=T MaxTD1= 6 Len=  172
 NBasis=   192 RedAO= T EigKep=  5.53D-03  NBF=   192
 NBsUse=   192 1.00D-06 EigRej= -1.00D+00 NBFU=   192
 Defaulting to unpruned grid for atomic number  78.
 Initial guess from the checkpoint file:  "/scr/nqtcm/Gau-31398.chk"
 B after Tr=     0.000000    0.000000    0.000000
         Rot=    0.999987    0.004513   -0.000422   -0.002159 Ang=   0.58 deg.
 ExpMin= 2.90D-02 ExpMax= 1.13D+05 ExpMxC= 1.70D+04 IAcc=3 IRadAn=         5 AccDes= 0.00D+00
 Harris functional with IExCor=  402 and IRadAn=       5 diagonalized for initial guess.
 HarFok:  IExCor=  402 AccDes= 0.00D+00 IRadAn=         5 IDoV= 1 UseB2=F ITyADJ=14
 ICtDFT=  3500011 ScaDFX=  1.000000  1.000000  1.000000  1.000000
 Defaulting to unpruned grid for atomic number  78.
 Defaulting to unpruned grid for atomic number  78.
 Defaulting to unpruned grid for atomic number  78.
 Defaulting to unpruned grid for atomic number  78.
 FoFCou: FMM=F IPFlag=           0 FMFlag=      100000 FMFlg1=           0
         NFxFlg=           0 DoJE=T BraDBF=F KetDBF=T FulRan=T
         wScrn=  0.000000 ICntrl=     500 IOpCl=  0 I1Cent=   200000004 NGrid=           0
         NMat0=    1 NMatS0=      1 NMatT0=    0 NMatD0=    1 NMtDS0=    0 NMtDT0=    0
 Petite list used in FoFCou.
 Keep R1 ints in memory in canonical form, NReq=177739024.
 Requested convergence on RMS density matrix=1.00D-08 within 128 cycles.
 Requested convergence on MAX density matrix=1.00D-06.
 Requested convergence on             energy=1.00D-06.
 No special actions if energy rises.
 Defaulting to unpruned grid for atomic number  78.
 Defaulting to unpruned grid for atomic number  78.
 Defaulting to unpruned grid for atomic number  78.
 Defaulting to unpruned grid for atomic number  78.
 Inv3:  Mode=1 IEnd=     7593843.
 Iteration    1 A*A^-1 deviation from unit magnitude is 8.44D-15 for   1241.
 Iteration    1 A*A^-1 deviation from orthogonality  is 4.92D-15 for   1389   1083.
 Iteration    1 A^-1*A deviation from unit magnitude is 6.44D-15 for    106.
 Iteration    1 A^-1*A deviation from orthogonality  is 4.06D-13 for    930    654.
 Error on total polarization charges =  0.01121
 SCF Done:  E(RB3LYP) =  -4483.60354090     A.U. after   12 cycles
            NFock= 12  Conv=0.61D-08     -V/T= 2.0206
   1 Symmetry operations used in ECPInt.
 ECPInt:  NShTT=    3240 NPrTT=   15076 LenC2=    3006 LenP2D=    9839.
 LDataN:  DoStor=T MaxTD1= 7 Len=  274
 D1PCM: PCM CHGder 1st derivatives, ID1Alg=3 FixD1E=F DoIter=F DoCFld=F I1PDM=0.
 Calling FoFJK, ICntrl=      2127 FMM=F ISym2X=0 I1Cent= 0 IOpClX= 0 NMat=1 NMatS=1 NMatT=0.
 Defaulting to unpruned grid for atomic number  78.
 Defaulting to unpruned grid for atomic number  78.
 Defaulting to unpruned grid for atomic number  78.
 Defaulting to unpruned grid for atomic number  78.
 ***** Axes restored to original set *****
 -------------------------------------------------------------------
 Center     Atomic                   Forces (Hartrees/Bohr)
 Number     Number              X              Y              Z
 -------------------------------------------------------------------
      1       78           0.002127723    0.001663142    0.000317025
      2        7           0.002682020    0.000655480    0.000466556
      3        7           0.001238084    0.003299543   -0.000145955
      4        8          -0.001581233   -0.002786577    0.001275582
      5        8          -0.001357035    0.002288970   -0.001624090
      6        8           0.001372195   -0.001835294    0.001602037
      7        8          -0.002491585   -0.001420712   -0.001682682
      8       35          -0.003021878    0.000333567    0.000301180
      9       17           0.000423891    0.001007150   -0.002305473
     10       17           0.000163699   -0.003458941   -0.000523077
     11       17           0.000444119    0.000253672    0.002318897
 -------------------------------------------------------------------
 Cartesian Forces:  Max     0.003458941 RMS     0.001757310

 GradGradGradGradGradGradGradGradGradGradGradGradGradGradGradGradGradGrad
 Berny optimization.
 Search for a local minimum.
 Step number   2 out of a maximum of   43
 All quantities printed in internal units (Hartrees-Bohrs-Radians)
 Update second derivatives using D2CorN and points    1    2
 DE= -1.62D-03 DEPred=-1.33D-03 R= 1.22D+00
 TightC=F SS=  1.41D+00  RLast= 1.77D-01 DXNew= 5.0454D-01 5.3039D-01
 Trust test= 1.22D+00 RLast= 1.77D-01 DXMaxT set to 5.05D-01
 ITU=  1  0
     Eigenvalues ---    0.00237   0.00336   0.01250   0.01679   0.02409
     Eigenvalues ---    0.02833   0.04205   0.04523   0.04563   0.04750
     Eigenvalues ---    0.05918   0.08257   0.08350   0.10524   0.11861
     Eigenvalues ---    0.13036   0.13155   0.16398   0.30374   0.30489
     Eigenvalues ---    0.60757   0.62708   0.72015   1.55290   1.55448
     Eigenvalues ---    2.54450   2.55940
 RFO step:  Lambda=-2.02349484D-04 EMin= 2.37390268D-03
 Quartic linear search produced a step of  0.37135.
 TrRot=  0.000626  0.001483 -0.000136 -0.600682 -0.000205  0.600550
 Variable       Old X    -DE/DX   Delta X   Delta X   Delta X     New X
                                 (Linear)    (Quad)   (Total)
    X1        0.26765   0.00213  -0.00109   0.00307   0.00258   0.27024
    Y1       -0.16170   0.00166  -0.00177   0.00095   0.00062  -0.16108
    Z1       -0.03794   0.00032  -0.00014  -0.00101  -0.00122  -0.03917
    X2        4.25386   0.00268   0.00057  -0.00112   0.00007   4.25393
    Y2       -0.28950   0.00066   0.00302  -0.00046   0.00346  -0.28605
    Z2       -0.17607   0.00047   0.00303   0.00076   0.00440  -0.17166
    X3        0.50119   0.00124   0.00327   0.00310   0.00739   0.50858
    Y3        3.75093   0.00330   0.00200  -0.00240   0.00108   3.75201
    Z3        0.58941  -0.00015  -0.00191  -0.00379  -0.00619   0.58322
    X4        5.32010  -0.00158  -0.00733   0.00242  -0.00388   5.31622
    Y4        1.44409  -0.00279   0.02031  -0.03494  -0.01399   1.43010
    Z4       -1.25412   0.00128   0.02270  -0.03959  -0.01629  -1.27041
    X5        5.33807  -0.00136  -0.00229   0.00151  -0.00056   5.33751
    Y5       -2.04216   0.00229  -0.00485   0.00730   0.00333  -2.03883
    Z5        0.83599  -0.00162  -0.00910   0.00410  -0.00399   0.83200
    X6       -0.91551   0.00137  -0.00523  -0.00309  -0.00693  -0.92244
    Y6        5.14949  -0.00184  -0.00071  -0.00280  -0.00196   5.14752
    Z6       -0.55952   0.00160   0.00663   0.00853   0.01427  -0.54525
    X7        2.10731  -0.00249   0.02316  -0.03384  -0.00981   2.09750
    Y7        4.48709  -0.00142  -0.00400  -0.00502  -0.00757   4.47951
    Z7        2.06915  -0.00168  -0.02013   0.02955   0.00912   2.07827
    X8       -4.61929  -0.00302  -0.02170  -0.00465  -0.02575  -4.64505
    Y8        0.02190   0.00033   0.00311   0.00579   0.01101   0.03292
    Z8        0.17407   0.00030   0.00067  -0.00094  -0.00120   0.17287
    X9        0.21790   0.00042   0.00623   0.01235   0.02004   0.23795
    Y9        0.53195   0.00101   0.00526   0.00867   0.01486   0.54681
    Z9       -4.52939  -0.00231  -0.02145   0.00319  -0.01842  -4.54781
   X10        0.05602   0.00016   0.00216   0.00715   0.00945   0.06547
   Y10       -4.70639  -0.00346  -0.02470  -0.00634  -0.02966  -4.73605
   Z10       -0.79260  -0.00052  -0.00278   0.00258   0.00022  -0.79238
   X11        0.38354   0.00044   0.00226   0.00538   0.00740   0.39094
   Y11       -0.83895   0.00025   0.00233   0.01455   0.01882  -0.82013
   Z11        4.45246   0.00232   0.02249  -0.00321   0.01931   4.47177
         Item               Value     Threshold  Converged?
 Maximum Force            0.003459     0.002500     NO 
 RMS     Force            0.001757     0.001667     NO 
 Maximum Displacement     0.029659     0.010000     NO 
 RMS     Displacement     0.011843     0.006667     NO 
 Predicted change in Energy=-1.721746D-04
 GradGradGradGradGradGradGradGradGradGradGradGradGradGradGradGradGradGrad

                          Input orientation:                          
 ---------------------------------------------------------------------
 Center     Atomic      Atomic             Coordinates (Angstroms)
 Number     Number       Type             X           Y           Z
 ---------------------------------------------------------------------
      1         78           0        0.143004   -0.085239   -0.020727
      2          7           0        2.251082   -0.151369   -0.090841
      3          7           0        0.269130    1.985480    0.308626
      4          8           0        2.813225    0.756777   -0.672272
      5          8           0        2.824491   -1.078900    0.440275
      6          8           0       -0.488134    2.723952   -0.288535
      7          8           0        1.109949    2.370456    1.099773
      8         35           0       -2.458052    0.017419    0.091479
      9         17           0        0.125916    0.289358   -2.406595
     10         17           0        0.034643   -2.506207   -0.419310
     11         17           0        0.206874   -0.433995    2.366359
 ---------------------------------------------------------------------
                    Distance matrix (angstroms):
                    1          2          3          4          5
     1  Pt   0.000000
     2  N    2.110280   0.000000
     3  N    2.100538   2.941739   0.000000
     4  O    2.874644   1.216057   2.990701   0.000000
     5  O    2.896594   1.212929   3.992196   2.146532   0.000000
     6  O    2.891645   3.976161   1.214657   3.862124   5.095717
     7  O    2.867218   3.013196   1.217003   2.940281   3.908024
     8  Br   2.605499   4.715684   3.370154   5.377390   5.406370
     9  Cl   2.415157   3.173845   3.204648   3.232335   4.154408
    10  Cl   2.455951   3.250501   4.556328   4.293201   3.249514
    11  Cl   2.413273   3.208815   3.176790   4.176635   3.313249
                    6          7          8          9         10
     6  O    0.000000
     7  O    2.146212   0.000000
     8  Br   3.369021   4.391363   0.000000
     9  Cl   3.284887   4.194509   3.604333   0.000000
    10  Cl   5.257848   5.219745   3.583730   3.431154   0.000000
    11  Cl   4.183793   3.206981   3.532801   4.828135   3.476159
                   11
    11  Cl   0.000000
 Stoichiometry    BrCl3N2O4Pt(2-)
 Framework group  C1[X(BrCl3N2O4Pt)]
 Deg. of freedom    27
 Full point group                 C1      NOp   1
 Largest Abelian subgroup         C1      NOp   1
 Largest concise Abelian subgroup C1      NOp   1
                         Standard orientation:                         
 ---------------------------------------------------------------------
 Center     Atomic      Atomic             Coordinates (Angstroms)
 Number     Number       Type             X           Y           Z
 ---------------------------------------------------------------------
      1         78           0       -0.147657   -0.084293    0.020427
      2          7           0       -2.256055   -0.143553    0.086950
      3          7           0       -0.266667    1.985651   -0.316361
      4          8           0       -2.816382    0.768377    0.664195
      5          8           0       -2.831424   -1.071124   -0.441972
      6          8           0        0.491841    2.723817    0.279597
      7          8           0       -1.104843    2.370507   -1.110366
      8         35           0        2.453908    0.009799   -0.087420
      9         17           0       -0.133688    0.298566    2.405004
     10         17           0       -0.047638   -2.504185    0.427632
     11         17           0       -0.208323   -0.441168   -2.365541
 ---------------------------------------------------------------------
 Rotational constants (GHZ):      0.5264140      0.3980601      0.3731611
 Basis read from rwf:  (5D, 7F)
 Pseudo-potential data read from rwf file.
 There are   206 symmetry adapted cartesian basis functions of A   symmetry.
 There are   192 symmetry adapted basis functions of A   symmetry.
   192 basis functions,   384 primitive gaussians,   206 cartesian basis functions
    76 alpha electrons       76 beta electrons
       nuclear repulsion energy      1624.2470290292 Hartrees.
 NAtoms=   11 NActive=   11 NUniq=   11 SFac= 1.00D+00 NAtFMM=   60 NAOKFM=F Big=F
 Integral buffers will be    131072 words long.
 Raffenetti 2 integral format.
 Two-electron integral symmetry is turned on.
 ------------------------------------------------------------------------------
 Polarizable Continuum Model (PCM)
 =================================
 Model                : PCM (using non-symmetric T matrix).
 Atomic radii         : UFF (Universal Force Field).
 Polarization charges : Total charges.
 Charge compensation  : None.
 Solution method      : On-the-fly selection.
 Cavity type          : Scaled VdW (van der Waals Surface) (Alpha=1.100).
 Cavity algorithm     : GePol (No added spheres)
                        Default sphere list used, NSphG=   11.
                        Lebedev-Laikov grids with approx.  5.0 points / Ang**2.
                        Smoothing algorithm: Karplus/York (Gamma=1.0000).
                        Polarization charges: spherical gaussians, with
                                              point-specific exponents (IZeta= 3).
                        Self-potential: point-specific (ISelfS= 7).
                        Self-field    : sphere-specific E.n sum rule (ISelfD= 2).
 1st derivatives      : Analytical E(r).r(x)/FMM algorithm (CHGder, D1EAlg=3).
                        Cavity 1st derivative terms included.
 Solvent              : Water, Eps=  78.355300 Eps(inf)=   1.777849
 ------------------------------------------------------------------------------
 Spheres list:
 ISph  on   Nord     Re0    Alpha      Xe            Ye            Ze
    1  Pt      1    1.3770  1.100     -0.147657     -0.084293      0.020427
    2   N      2    1.8300  1.100     -2.256055     -0.143553      0.086950
    3   N      3    1.8300  1.100     -0.266667      1.985651     -0.316361
    4   O      4    1.7500  1.100     -2.816382      0.768377      0.664195
    5   O      5    1.7500  1.100     -2.831424     -1.071124     -0.441972
    6   O      6    1.7500  1.100      0.491841      2.723817      0.279597
    7   O      7    1.7500  1.100     -1.104843      2.370507     -1.110366
    8  Br      8    2.0945  1.100      2.453908      0.009799     -0.087420
    9  Cl      9    1.9735  1.100     -0.133688      0.298566      2.405004
   10  Cl     10    1.9735  1.100     -0.047638     -2.504185      0.427632
   11  Cl     11    1.9735  1.100     -0.208323     -0.441168     -2.365541
 ------------------------------------------------------------------------------
 One-electron integrals computed using PRISM.
   1 Symmetry operations used in ECPInt.
 ECPInt:  NShTT=    3240 NPrTT=   15076 LenC2=    3006 LenP2D=    9836.
 LDataN:  DoStor=T MaxTD1= 6 Len=  172
 NBasis=   192 RedAO= T EigKep=  5.50D-03  NBF=   192
 NBsUse=   192 1.00D-06 EigRej= -1.00D+00 NBFU=   192
 Defaulting to unpruned grid for atomic number  78.
 Initial guess from the checkpoint file:  "/scr/nqtcm/Gau-31398.chk"
 B after Tr=     0.000000    0.000000    0.000000
         Rot=    0.999988   -0.003133    0.001672    0.003339 Ang=  -0.56 deg.
 ExpMin= 2.90D-02 ExpMax= 1.13D+05 ExpMxC= 1.70D+04 IAcc=3 IRadAn=         5 AccDes= 0.00D+00
 Harris functional with IExCor=  402 and IRadAn=       5 diagonalized for initial guess.
 HarFok:  IExCor=  402 AccDes= 0.00D+00 IRadAn=         5 IDoV= 1 UseB2=F ITyADJ=14
 ICtDFT=  3500011 ScaDFX=  1.000000  1.000000  1.000000  1.000000
 Defaulting to unpruned grid for atomic number  78.
 Defaulting to unpruned grid for atomic number  78.
 Defaulting to unpruned grid for atomic number  78.
 Defaulting to unpruned grid for atomic number  78.
 FoFCou: FMM=F IPFlag=           0 FMFlag=      100000 FMFlg1=           0
         NFxFlg=           0 DoJE=T BraDBF=F KetDBF=T FulRan=T
         wScrn=  0.000000 ICntrl=     500 IOpCl=  0 I1Cent=   200000004 NGrid=           0
         NMat0=    1 NMatS0=      1 NMatT0=    0 NMatD0=    1 NMtDS0=    0 NMtDT0=    0
 Petite list used in FoFCou.
 Keep R1 ints in memory in canonical form, NReq=177755524.
 Requested convergence on RMS density matrix=1.00D-08 within 128 cycles.
 Requested convergence on MAX density matrix=1.00D-06.
 Requested convergence on             energy=1.00D-06.
 No special actions if energy rises.
 Defaulting to unpruned grid for atomic number  78.
 Defaulting to unpruned grid for atomic number  78.
 Defaulting to unpruned grid for atomic number  78.
 Defaulting to unpruned grid for atomic number  78.
 Inv3:  Mode=1 IEnd=     7641648.
 Iteration    1 A*A^-1 deviation from unit magnitude is 6.22D-15 for     26.
 Iteration    1 A*A^-1 deviation from orthogonality  is 3.84D-15 for    673    602.
 Iteration    1 A^-1*A deviation from unit magnitude is 7.11D-15 for    948.
 Iteration    1 A^-1*A deviation from orthogonality  is 9.10D-11 for    719    679.
 Error on total polarization charges =  0.01120
 SCF Done:  E(RB3LYP) =  -4483.60374730     A.U. after   11 cycles
            NFock= 11  Conv=0.95D-08     -V/T= 2.0206
   1 Symmetry operations used in ECPInt.
 ECPInt:  NShTT=    3240 NPrTT=   15076 LenC2=    3006 LenP2D=    9836.
 LDataN:  DoStor=T MaxTD1= 7 Len=  274
 D1PCM: PCM CHGder 1st derivatives, ID1Alg=3 FixD1E=F DoIter=F DoCFld=F I1PDM=0.
 Calling FoFJK, ICntrl=      2127 FMM=F ISym2X=0 I1Cent= 0 IOpClX= 0 NMat=1 NMatS=1 NMatT=0.
 Defaulting to unpruned grid for atomic number  78.
 Defaulting to unpruned grid for atomic number  78.
 Defaulting to unpruned grid for atomic number  78.
 Defaulting to unpruned grid for atomic number  78.
 ***** Axes restored to original set *****
 -------------------------------------------------------------------
 Center     Atomic                   Forces (Hartrees/Bohr)
 Number     Number              X              Y              Z
 -------------------------------------------------------------------
      1       78           0.001143598    0.000427739   -0.000114051
      2        7           0.000833937   -0.000959691   -0.000969048
      3        7          -0.001592315    0.001060652    0.001195509
      4        8          -0.000418712    0.000773589    0.000194946
      5        8          -0.000593862    0.000161263    0.000602976
      6        8           0.000827666   -0.000816886   -0.000346711
      7        8           0.000520102   -0.000346326   -0.000644659
      8       35          -0.000736352    0.000006198   -0.000019935
      9       17          -0.000090920    0.000410503    0.000029623
     10       17           0.000110658   -0.000783968   -0.000093365
     11       17          -0.000003801    0.000066928    0.000164713
 -------------------------------------------------------------------
 Cartesian Forces:  Max     0.001592315 RMS     0.000659869

 GradGradGradGradGradGradGradGradGradGradGradGradGradGradGradGradGradGrad
 Berny optimization.
 Search for a local minimum.
 Step number   3 out of a maximum of   43
 All quantities printed in internal units (Hartrees-Bohrs-Radians)
 Update second derivatives using D2CorN and points    1    2    3
 DE= -2.06D-04 DEPred=-1.72D-04 R= 1.20D+00
 TightC=F SS=  1.41D+00  RLast= 6.80D-02 DXNew= 8.4853D-01 2.0409D-01
 Trust test= 1.20D+00 RLast= 6.80D-02 DXMaxT set to 5.05D-01
 ITU=  1  1  0
     Eigenvalues ---    0.00214   0.00614   0.01406   0.01861   0.02415
     Eigenvalues ---    0.02830   0.03829   0.04494   0.04594   0.04702
     Eigenvalues ---    0.05919   0.07502   0.08259   0.09867   0.11799
     Eigenvalues ---    0.13110   0.14122   0.16149   0.30389   0.30484
     Eigenvalues ---    0.60547   0.62519   0.72018   1.55078   1.55378
     Eigenvalues ---    2.54456   2.55939
 RFO step:  Lambda=-1.22354694D-04 EMin= 2.14096988D-03
 Quartic linear search produced a step of -0.00472.
 TrRot= -0.001010 -0.000202 -0.000764  1.400794 -0.000519 -1.400716
 Variable       Old X    -DE/DX   Delta X   Delta X   Delta X     New X
                                 (Linear)    (Quad)   (Total)
    X1        0.27024   0.00114  -0.00001  -0.00221  -0.00321   0.26702
    Y1       -0.16108   0.00043   0.00000  -0.00344  -0.00360  -0.16468
    Z1       -0.03917  -0.00011   0.00001  -0.00020  -0.00102  -0.04019
    X2        4.25393   0.00083   0.00000  -0.00424  -0.00521   4.24872
    Y2       -0.28605  -0.00096  -0.00002  -0.00075  -0.00055  -0.28659
    Z2       -0.17166  -0.00097  -0.00002  -0.00292  -0.00348  -0.17514
    X3        0.50858  -0.00159  -0.00003  -0.00326  -0.00464   0.50394
    Y3        3.75201   0.00106  -0.00001  -0.00608  -0.00655   3.74547
    Z3        0.58322   0.00120   0.00003   0.00976   0.01099   0.59421
    X4        5.31622  -0.00042   0.00002  -0.01173  -0.01272   5.30350
    Y4        1.43010   0.00077   0.00007  -0.00398  -0.00305   1.42705
    Z4       -1.27041   0.00019   0.00008  -0.01456  -0.01405  -1.28446
    X5        5.33751  -0.00059   0.00000  -0.00391  -0.00484   5.33267
    Y5       -2.03883   0.00016  -0.00002   0.03010   0.02985  -2.00898
    Z5        0.83200   0.00060   0.00002   0.04659   0.04528   0.87728
    X6       -0.92244   0.00083   0.00003   0.00142   0.00009  -0.92235
    Y6        5.14752  -0.00082   0.00001  -0.00635  -0.00634   5.14119
    Z6       -0.54525  -0.00035  -0.00007   0.00656   0.00827  -0.53698
    X7        2.09750   0.00052   0.00005   0.04144   0.03995   2.13745
    Y7        4.47951  -0.00035   0.00004  -0.00884  -0.00989   4.46962
    Z7        2.07827  -0.00064  -0.00004  -0.03528  -0.03361   2.04466
    X8       -4.64505  -0.00074   0.00012  -0.01338  -0.01429  -4.65933
    Y8        0.03292   0.00001  -0.00005  -0.00122  -0.00192   0.03099
    Z8        0.17287  -0.00002   0.00001  -0.00004  -0.00119   0.17168
    X9        0.23795  -0.00009  -0.00009   0.00094   0.00019   0.23814
    Y9        0.54681   0.00041  -0.00007   0.02059   0.02266   0.56947
    Z9       -4.54781   0.00003   0.00009  -0.00032  -0.00068  -4.54849
   X10        0.06547   0.00011  -0.00004   0.00558   0.00497   0.07043
   Y10       -4.73605  -0.00078   0.00014  -0.01331  -0.01295  -4.74900
   Z10       -0.79238  -0.00009   0.00000  -0.00969  -0.01288  -0.80526
   X11        0.39094   0.00000  -0.00003   0.00108  -0.00029   0.39064
   Y11       -0.82013   0.00007  -0.00009  -0.00511  -0.00766  -0.82779
   Z11        4.47177   0.00016  -0.00009   0.00361   0.00237   4.47414
         Item               Value     Threshold  Converged?
 Maximum Force            0.001592     0.002500     YES
 RMS     Force            0.000660     0.001667     YES
 Maximum Displacement     0.045281     0.010000     NO 
 RMS     Displacement     0.015236     0.006667     NO 
 Predicted change in Energy=-6.244061D-05
 GradGradGradGradGradGradGradGradGradGradGradGradGradGradGradGradGradGrad

                          Input orientation:                          
 ---------------------------------------------------------------------
 Center     Atomic      Atomic             Coordinates (Angstroms)
 Number     Number       Type             X           Y           Z
 ---------------------------------------------------------------------
      1         78           0        0.141303   -0.087146   -0.021268
      2          7           0        2.248325   -0.151659   -0.092681
      3          7           0        0.266673    1.982015    0.314442
      4          8           0        2.806494    0.755163   -0.679706
      5          8           0        2.821930   -1.063105    0.464236
      6          8           0       -0.488087    2.720598   -0.284156
      7          8           0        1.131091    2.365223    1.081987
      8         35           0       -2.465612    0.016401    0.090850
      9         17           0        0.126018    0.301351   -2.406958
     10         17           0        0.037272   -2.513062   -0.426124
     11         17           0        0.206719   -0.438047    2.367611
 ---------------------------------------------------------------------
                    Distance matrix (angstroms):
                    1          2          3          4          5
     1  Pt   0.000000
     2  N    2.109219   0.000000
     3  N    2.099964   2.940283   0.000000
     4  O    2.871631   1.215926   2.990683   0.000000
     5  O    2.893781   1.212400   3.978007   2.148241   0.000000
     6  O    2.889406   3.971710   1.213873   3.856638   5.082589
     7  O    2.865478   2.993786   1.217863   2.915962   3.872207
     8  Br   2.611379   4.720501   3.373279   5.379091   5.409515
     9  Cl   2.417163   3.172583   3.201630   3.220915   4.168145
    10  Cl   2.461667   3.252101   4.561446   4.291176   3.263347
    11  Cl   2.415399   3.209861   3.174240   4.179560   3.294368
                    6          7          8          9         10
     6  O    0.000000
     7  O    2.148109   0.000000
     8  Br   3.371041   4.408581   0.000000
     9  Cl   3.276610   4.176419   3.610649   0.000000
    10  Cl   5.261878   5.221926   3.595814   3.442746   0.000000
    11  Cl   4.182304   3.219568   3.539988   4.832155   3.484158
                   11
    11  Cl   0.000000
 Stoichiometry    BrCl3N2O4Pt(2-)
 Framework group  C1[X(BrCl3N2O4Pt)]
 Deg. of freedom    27
 Full point group                 C1      NOp   1
 Largest Abelian subgroup         C1      NOp   1
 Largest concise Abelian subgroup C1      NOp   1
                         Standard orientation:                         
 ---------------------------------------------------------------------
 Center     Atomic      Atomic             Coordinates (Angstroms)
 Number     Number       Type             X           Y           Z
 ---------------------------------------------------------------------
      1         78           0       -0.146929   -0.085824    0.022129
      2          7           0       -2.253833   -0.151849    0.095614
      3          7           0       -0.275295    1.976265   -0.353583
      4          8           0       -2.813043    0.765412    0.665169
      5          8           0       -2.826378   -1.074712   -0.443302
      6          8           0        0.478661    2.727355    0.230285
      7          8           0       -1.140527    2.343327   -1.128070
      8         35           0        2.459798    0.019128   -0.093008
      9         17           0       -0.131302    0.348872    2.399832
     10         17           0       -0.039383   -2.503290    0.473898
     11         17           0       -0.212740   -0.483063   -2.359472
 ---------------------------------------------------------------------
 Rotational constants (GHZ):      0.5261112      0.3971773      0.3724094
 Basis read from rwf:  (5D, 7F)
 Pseudo-potential data read from rwf file.
 There are   206 symmetry adapted cartesian basis functions of A   symmetry.
 There are   192 symmetry adapted basis functions of A   symmetry.
   192 basis functions,   384 primitive gaussians,   206 cartesian basis functions
    76 alpha electrons       76 beta electrons
       nuclear repulsion energy      1623.0380326498 Hartrees.
 NAtoms=   11 NActive=   11 NUniq=   11 SFac= 1.00D+00 NAtFMM=   60 NAOKFM=F Big=F
 Integral buffers will be    131072 words long.
 Raffenetti 2 integral format.
 Two-electron integral symmetry is turned on.
 ------------------------------------------------------------------------------
 Polarizable Continuum Model (PCM)
 =================================
 Model                : PCM (using non-symmetric T matrix).
 Atomic radii         : UFF (Universal Force Field).
 Polarization charges : Total charges.
 Charge compensation  : None.
 Solution method      : On-the-fly selection.
 Cavity type          : Scaled VdW (van der Waals Surface) (Alpha=1.100).
 Cavity algorithm     : GePol (No added spheres)
                        Default sphere list used, NSphG=   11.
                        Lebedev-Laikov grids with approx.  5.0 points / Ang**2.
                        Smoothing algorithm: Karplus/York (Gamma=1.0000).
                        Polarization charges: spherical gaussians, with
                                              point-specific exponents (IZeta= 3).
                        Self-potential: point-specific (ISelfS= 7).
                        Self-field    : sphere-specific E.n sum rule (ISelfD= 2).
 1st derivatives      : Analytical E(r).r(x)/FMM algorithm (CHGder, D1EAlg=3).
                        Cavity 1st derivative terms included.
 Solvent              : Water, Eps=  78.355300 Eps(inf)=   1.777849
 ------------------------------------------------------------------------------
 Spheres list:
 ISph  on   Nord     Re0    Alpha      Xe            Ye            Ze
    1  Pt      1    1.3770  1.100     -0.146929     -0.085824      0.022129
    2   N      2    1.8300  1.100     -2.253833     -0.151849      0.095614
    3   N      3    1.8300  1.100     -0.275295      1.976265     -0.353583
    4   O      4    1.7500  1.100     -2.813043      0.765412      0.665169
    5   O      5    1.7500  1.100     -2.826378     -1.074712     -0.443302
    6   O      6    1.7500  1.100      0.478661      2.727355      0.230285
    7   O      7    1.7500  1.100     -1.140527      2.343327     -1.128070
    8  Br      8    2.0945  1.100      2.459798      0.019128     -0.093008
    9  Cl      9    1.9735  1.100     -0.131302      0.348872      2.399832
   10  Cl     10    1.9735  1.100     -0.039383     -2.503290      0.473898
   11  Cl     11    1.9735  1.100     -0.212740     -0.483063     -2.359472
 ------------------------------------------------------------------------------
 One-electron integrals computed using PRISM.
   1 Symmetry operations used in ECPInt.
 ECPInt:  NShTT=    3240 NPrTT=   15076 LenC2=    3006 LenP2D=    9833.
 LDataN:  DoStor=T MaxTD1= 6 Len=  172
 NBasis=   192 RedAO= T EigKep=  5.48D-03  NBF=   192
 NBsUse=   192 1.00D-06 EigRej= -1.00D+00 NBFU=   192
 Defaulting to unpruned grid for atomic number  78.
 Initial guess from the checkpoint file:  "/scr/nqtcm/Gau-31398.chk"
 B after Tr=     0.000000    0.000000    0.000000
         Rot=    0.999961    0.008438   -0.001053   -0.002178 Ang=   1.01 deg.
 ExpMin= 2.90D-02 ExpMax= 1.13D+05 ExpMxC= 1.70D+04 IAcc=3 IRadAn=         5 AccDes= 0.00D+00
 Harris functional with IExCor=  402 and IRadAn=       5 diagonalized for initial guess.
 HarFok:  IExCor=  402 AccDes= 0.00D+00 IRadAn=         5 IDoV= 1 UseB2=F ITyADJ=14
 ICtDFT=  3500011 ScaDFX=  1.000000  1.000000  1.000000  1.000000
 Defaulting to unpruned grid for atomic number  78.
 Defaulting to unpruned grid for atomic number  78.
 Defaulting to unpruned grid for atomic number  78.
 Defaulting to unpruned grid for atomic number  78.
 FoFCou: FMM=F IPFlag=           0 FMFlag=      100000 FMFlg1=           0
         NFxFlg=           0 DoJE=T BraDBF=F KetDBF=T FulRan=T
         wScrn=  0.000000 ICntrl=     500 IOpCl=  0 I1Cent=   200000004 NGrid=           0
         NMat0=    1 NMatS0=      1 NMatT0=    0 NMatD0=    1 NMtDS0=    0 NMtDT0=    0
 Petite list used in FoFCou.
 Keep R1 ints in memory in canonical form, NReq=177745502.
 Requested convergence on RMS density matrix=1.00D-08 within 128 cycles.
 Requested convergence on MAX density matrix=1.00D-06.
 Requested convergence on             energy=1.00D-06.
 No special actions if energy rises.
 Defaulting to unpruned grid for atomic number  78.
 Defaulting to unpruned grid for atomic number  78.
 Defaulting to unpruned grid for atomic number  78.
 Defaulting to unpruned grid for atomic number  78.
 Inv3:  Mode=1 IEnd=     7612947.
 Iteration    1 A*A^-1 deviation from unit magnitude is 7.33D-15 for    573.
 Iteration    1 A*A^-1 deviation from orthogonality  is 4.27D-15 for   1122    831.
 Iteration    1 A^-1*A deviation from unit magnitude is 6.44D-15 for   1086.
 Iteration    1 A^-1*A deviation from orthogonality  is 9.38D-13 for   1076    674.
 Error on total polarization charges =  0.01122
 SCF Done:  E(RB3LYP) =  -4483.60375508     A.U. after   12 cycles
            NFock= 12  Conv=0.61D-08     -V/T= 2.0206
   1 Symmetry operations used in ECPInt.
 ECPInt:  NShTT=    3240 NPrTT=   15076 LenC2=    3006 LenP2D=    9833.
 LDataN:  DoStor=T MaxTD1= 7 Len=  274
 D1PCM: PCM CHGder 1st derivatives, ID1Alg=3 FixD1E=F DoIter=F DoCFld=F I1PDM=0.
 Calling FoFJK, ICntrl=      2127 FMM=F ISym2X=0 I1Cent= 0 IOpClX= 0 NMat=1 NMatS=1 NMatT=0.
 Defaulting to unpruned grid for atomic number  78.
 Defaulting to unpruned grid for atomic number  78.
 Defaulting to unpruned grid for atomic number  78.
 Defaulting to unpruned grid for atomic number  78.
 ***** Axes restored to original set *****
 -------------------------------------------------------------------
 Center     Atomic                   Forces (Hartrees/Bohr)
 Number     Number              X              Y              Z
 -------------------------------------------------------------------
      1       78          -0.000273575   -0.000536290    0.000211437
      2        7          -0.000088339    0.000936247    0.000876242
      3        7           0.002057166    0.000603483   -0.001076233
      4        8           0.000248469   -0.000402204   -0.000307882
      5        8           0.000015356   -0.000348782   -0.000393817
      6        8          -0.000195964   -0.000122152    0.000922721
      7        8          -0.001678194   -0.000325806   -0.000230436
      8       35          -0.000051072   -0.000168490    0.000000219
      9       17          -0.000190344    0.000016610    0.000358681
     10       17           0.000261577    0.000119196   -0.000036213
     11       17          -0.000105079    0.000228186   -0.000324719
 -------------------------------------------------------------------
 Cartesian Forces:  Max     0.002057166 RMS     0.000621288

 GradGradGradGradGradGradGradGradGradGradGradGradGradGradGradGradGradGrad
 Berny optimization.
 Search for a local minimum.
 Step number   4 out of a maximum of   43
 All quantities printed in internal units (Hartrees-Bohrs-Radians)
 Update second derivatives using D2CorN and points    1    2    3    4
 DE= -7.78D-06 DEPred=-6.24D-05 R= 1.25D-01
 Trust test= 1.25D-01 RLast= 8.75D-02 DXMaxT set to 5.05D-01
 ITU=  0  1  1  0
     Eigenvalues ---    0.00105   0.00713   0.01635   0.01919   0.02444
     Eigenvalues ---    0.02855   0.03807   0.04485   0.04598   0.04727
     Eigenvalues ---    0.05917   0.07658   0.08273   0.09892   0.11801
     Eigenvalues ---    0.13140   0.14405   0.16380   0.30490   0.30524
     Eigenvalues ---    0.60548   0.62520   0.72022   1.55017   1.55370
     Eigenvalues ---    2.54457   2.55948
 RFO step:  Lambda=-9.22117120D-06 EMin= 1.04767666D-03
 Quartic linear search produced a step of -0.47289.
 TrRot= -0.000083  0.000104  0.000194  0.000036  0.000064  0.000036
 MatCor failed.
 Variable       Old X    -DE/DX   Delta X   Delta X   Delta X     New X
                                 (Linear)    (Quad)   (Total)
    X1        0.26702  -0.00027   0.00152   0.00081   0.00226   0.26928
    Y1       -0.16468  -0.00054   0.00170  -0.00014   0.00169  -0.16299
    Z1       -0.04019   0.00021   0.00048  -0.00024   0.00042  -0.03977
    X2        4.24872  -0.00009   0.00246   0.00049   0.00288   4.25159
    Y2       -0.28659   0.00094   0.00026  -0.00103  -0.00036  -0.28696
    Z2       -0.17514   0.00088   0.00164  -0.00016   0.00140  -0.17374
    X3        0.50394   0.00206   0.00220   0.00162   0.00350   0.50744
    Y3        3.74547   0.00060   0.00310   0.00011   0.00335   3.74881
    Z3        0.59421  -0.00108  -0.00520  -0.00211  -0.00714   0.58706
    X4        5.30350   0.00025   0.00601   0.00131   0.00706   5.31057
    Y4        1.42705  -0.00040   0.00144   0.00128   0.00320   1.43025
    Z4       -1.28446  -0.00031   0.00664   0.00402   0.01051  -1.27394
    X5        5.33267   0.00002   0.00229  -0.00353  -0.00113   5.33155
    Y5       -2.00898  -0.00035  -0.01411  -0.00532  -0.01895  -2.02792
    Z5        0.87728  -0.00039  -0.02141  -0.00324  -0.02480   0.85248
    X6       -0.92235  -0.00020  -0.00004   0.00279   0.00226  -0.92009
    Y6        5.14119  -0.00012   0.00300  -0.00082   0.00221   5.14340
    Z6       -0.53698   0.00092  -0.00391  -0.00317  -0.00683  -0.54380
    X7        2.13745  -0.00168  -0.01889  -0.00266  -0.02183   2.11562
    Y7        4.46962  -0.00033   0.00468  -0.00127   0.00366   4.47328
    Z7        2.04466  -0.00023   0.01589   0.00156   0.01752   2.06217
    X8       -4.65933  -0.00005   0.00676  -0.00302   0.00366  -4.65567
    Y8        0.03099  -0.00017   0.00091  -0.00042   0.00026   0.03125
    Z8        0.17168   0.00000   0.00056   0.00055   0.00161   0.17329
    X9        0.23814  -0.00019  -0.00009  -0.00223  -0.00274   0.23540
    Y9        0.56947   0.00002  -0.01072   0.00458  -0.00601   0.56346
    Z9       -4.54849   0.00036   0.00032   0.00084   0.00135  -4.54714
   X10        0.07043   0.00026  -0.00235   0.00480   0.00266   0.07309
   Y10       -4.74900   0.00012   0.00613  -0.00352   0.00272  -4.74628
   Z10       -0.80526  -0.00004   0.00609   0.00019   0.00647  -0.79879
   X11        0.39064  -0.00011   0.00014   0.00101   0.00141   0.39205
   Y11       -0.82779   0.00023   0.00362   0.00448   0.00823  -0.81956
   Z11        4.47414  -0.00032  -0.00112   0.00045  -0.00050   4.47363
         Item               Value     Threshold  Converged?
 Maximum Force            0.002057     0.002500     YES
 RMS     Force            0.000621     0.001667     YES
 Maximum Displacement     0.024803     0.010000     NO 
 RMS     Displacement     0.008312     0.006667     NO 
 Predicted change in Energy=-2.766382D-05
 GradGradGradGradGradGradGradGradGradGradGradGradGradGradGradGradGradGrad

                          Input orientation:                          
 ---------------------------------------------------------------------
 Center     Atomic      Atomic             Coordinates (Angstroms)
 Number     Number       Type             X           Y           Z
 ---------------------------------------------------------------------
      1         78           0        0.142498   -0.086251   -0.021044
      2          7           0        2.249847   -0.151850   -0.091939
      3          7           0        0.268527    1.983787    0.310661
      4          8           0        2.810231    0.756858   -0.674142
      5          8           0        2.821333   -1.073132    0.451111
      6          8           0       -0.486889    2.721770   -0.287769
      7          8           0        1.119540    2.367159    1.091255
      8         35           0       -2.463674    0.016538    0.091700
      9         17           0        0.124571    0.298168   -2.406245
     10         17           0        0.038680   -2.511624   -0.422703
[...]
 Requested convergence on RMS density matrix=1.00D-08 within 128 cycles.
 Requested convergence on MAX density matrix=1.00D-06.
 Requested convergence on             energy=1.00D-06.
 No special actions if energy rises.
 Defaulting to unpruned grid for atomic number  78.
 Defaulting to unpruned grid for atomic number  78.
 Defaulting to unpruned grid for atomic number  78.
 Defaulting to unpruned grid for atomic number  78.
 Inv3:  Mode=1 IEnd=     7632075.
 Iteration    1 A*A^-1 deviation from unit magnitude is 6.44D-15 for    744.
 Iteration    1 A*A^-1 deviation from orthogonality  is 3.13D-15 for    426    164.
 Iteration    1 A^-1*A deviation from unit magnitude is 6.22D-15 for    494.
 Iteration    1 A^-1*A deviation from orthogonality  is 1.07D-11 for   1079    676.
 Error on total polarization charges =  0.01121
 SCF Done:  E(RB3LYP) =  -4483.60378881     A.U. after    8 cycles
            NFock=  8  Conv=0.82D-08     -V/T= 2.0206
   1 Symmetry operations used in ECPInt.
 ECPInt:  NShTT=    3240 NPrTT=   15076 LenC2=    3006 LenP2D=    9835.
 LDataN:  DoStor=T MaxTD1= 7 Len=  274
 D1PCM: PCM CHGder 1st derivatives, ID1Alg=3 FixD1E=F DoIter=F DoCFld=F I1PDM=0.
 Calling FoFJK, ICntrl=      2127 FMM=F ISym2X=0 I1Cent= 0 IOpClX= 0 NMat=1 NMatS=1 NMatT=0.
 Defaulting to unpruned grid for atomic number  78.
 Defaulting to unpruned grid for atomic number  78.
 Defaulting to unpruned grid for atomic number  78.
 Defaulting to unpruned grid for atomic number  78.
 ***** Axes restored to original set *****
 -------------------------------------------------------------------
 Center     Atomic                   Forces (Hartrees/Bohr)
 Number     Number              X              Y              Z
 -------------------------------------------------------------------
      1       78           0.000263439   -0.000114034   -0.000076267
      2        7          -0.000095607    0.000010548   -0.000073017
      3        7          -0.000384288    0.000178346    0.000144287
      4        8           0.000092416   -0.000080725    0.000084813
      5        8           0.000071606    0.000089630   -0.000003496
      6        8           0.000141135   -0.000105144   -0.000034597
      7        8           0.000075251    0.000020041   -0.000063728
      8       35          -0.000103613   -0.000138105   -0.000004838
      9       17          -0.000084103    0.000117713    0.000144409
     10       17           0.000105874   -0.000068135   -0.000027482
     11       17          -0.000082109    0.000089865   -0.000090086
 -------------------------------------------------------------------
 Cartesian Forces:  Max     0.000384288 RMS     0.000122101

 GradGradGradGradGradGradGradGradGradGradGradGradGradGradGradGradGradGrad
 Berny optimization.
 Search for a local minimum.
 Step number   7 out of a maximum of   43
 All quantities printed in internal units (Hartrees-Bohrs-Radians)
 Update second derivatives using D2CorN and points    1    2    3    4    5
                                                          7
 ITU=  0  0  1  0  1  1  0
     Eigenvalues ---    0.00290   0.00743   0.01373   0.01893   0.02363
     Eigenvalues ---    0.02814   0.03759   0.04395   0.04603   0.04714
     Eigenvalues ---    0.05926   0.07574   0.08288   0.09843   0.11787
     Eigenvalues ---    0.13159   0.16077   0.16664   0.30495   0.30688
     Eigenvalues ---    0.60482   0.62520   0.72030   1.55008   1.55344
     Eigenvalues ---    2.54478   2.55951
 RFO step:  Lambda=-3.01662281D-06 EMin= 2.89851371D-03
 Quartic linear search produced a step of -0.47742.
 TrRot= -0.000082 -0.000044 -0.000005  0.000051 -0.000009  0.000051
 MatCor failed.
 Variable       Old X    -DE/DX   Delta X   Delta X   Delta X     New X
                                 (Linear)    (Quad)   (Total)
    X1        0.26921   0.00026   0.00003   0.00004   0.00001   0.26922
    Y1       -0.16303  -0.00011   0.00002   0.00016   0.00016  -0.16287
    Z1       -0.04036  -0.00008   0.00028   0.00017   0.00045  -0.03991
    X2        4.25141  -0.00010   0.00009   0.00025   0.00029   4.25169
    Y2       -0.28653   0.00001  -0.00020  -0.00130  -0.00111  -0.28764
    Z2       -0.17265  -0.00007  -0.00052   0.00109   0.00060  -0.17205
    X3        0.50870  -0.00038  -0.00060  -0.00094  -0.00201   0.50669
    Y3        3.74852   0.00018   0.00014   0.00065   0.00080   3.74931
    Z3        0.58652   0.00014   0.00026   0.00078   0.00103   0.58756
    X4        5.31036   0.00009   0.00010   0.00264   0.00253   5.31288
    Y4        1.42631  -0.00008   0.00189  -0.00629  -0.00391   1.42240
    Z4       -1.27941   0.00008   0.00261  -0.00384  -0.00119  -1.28060
    X5        5.33103   0.00007   0.00025  -0.00111  -0.00075   5.33028
    Y5       -2.02372   0.00009  -0.00201  -0.00001  -0.00151  -2.02523
    Z5        0.86018   0.00000  -0.00368   0.00456   0.00093   0.86111
    X6       -0.92474   0.00014   0.00222  -0.00154   0.00008  -0.92466
    Y6        5.14301  -0.00011   0.00018   0.00027   0.00031   5.14333
    Z6       -0.53722  -0.00003  -0.00314   0.00151  -0.00165  -0.53886
    X7        2.12076   0.00008  -0.00245   0.00388   0.00087   2.12163
    Y7        4.47257   0.00002   0.00034   0.00108   0.00159   4.47416
    Z7        2.05762  -0.00006   0.00217  -0.00451  -0.00232   2.05530
    X8       -4.65622  -0.00010   0.00026  -0.00160  -0.00142  -4.65764
    Y8        0.03110  -0.00014   0.00007  -0.00219  -0.00264   0.02846
    Z8        0.17184   0.00000   0.00069   0.00003   0.00068   0.17252
    X9        0.23571  -0.00008  -0.00015  -0.00165  -0.00189   0.23382
    Y9        0.56512   0.00012  -0.00080   0.00554   0.00472   0.56984
    Z9       -4.54738   0.00014   0.00011   0.00175   0.00186  -4.54552
   X10        0.07368   0.00011  -0.00028   0.00358   0.00371   0.07739
   Y10       -4.74644  -0.00007   0.00008  -0.00076  -0.00072  -4.74716
   Z10       -0.80063  -0.00003   0.00088  -0.00150  -0.00063  -0.80126
   X11        0.39095  -0.00008   0.00052  -0.00189  -0.00140   0.38955
   Y11       -0.82016   0.00009   0.00029   0.00203   0.00231  -0.81785
   Z11        4.47292  -0.00009   0.00034  -0.00011   0.00023   4.47315
         Item               Value     Threshold  Converged?
 Maximum Force            0.000384     0.002500     YES
 RMS     Force            0.000122     0.001667     YES
 Maximum Displacement     0.004721     0.010000     YES
 RMS     Displacement     0.001798     0.006667     YES
 Predicted change in Energy=-2.058136D-06
 Optimization completed.
    -- Stationary point found.
 GradGradGradGradGradGradGradGradGradGradGradGradGradGradGradGradGradGrad

                          Input orientation:                          
 ---------------------------------------------------------------------
 Center     Atomic      Atomic             Coordinates (Angstroms)
 Number     Number       Type             X           Y           Z
 ---------------------------------------------------------------------
      1         78           0        0.142462   -0.086273   -0.021356
      2          7           0        2.249748   -0.151627   -0.091361
      3          7           0        0.269190    1.983630    0.310376
      4          8           0        2.810120    0.754769   -0.677036
      5          8           0        2.821060   -1.070904    0.455189
      6          8           0       -0.489351    2.721566   -0.284284
      7          8           0        1.122256    2.366783    1.088847
      8         35           0       -2.463966    0.016459    0.090933
      9         17           0        0.124734    0.299050   -2.406368
     10         17           0        0.038991   -2.511710   -0.423674
     11         17           0        0.206883   -0.434011    2.366966
 ---------------------------------------------------------------------
                    Distance matrix (angstroms):
                    1          2          3          4          5
     1  Pt   0.000000
     2  N    2.109461   0.000000
     3  N    2.100143   2.939953   0.000000
     4  O    2.872920   1.215971   2.990218   0.000000
     5  O    2.893351   1.212512   3.982862   2.148287   0.000000
     6  O    2.890030   3.974307   1.213900   3.861224   5.088071
     7  O    2.865315   3.001086   1.216777   2.926742   3.886535
     8  Br   2.610867   4.720231   3.374619   5.380600   5.408007
     9  Cl   2.416003   3.174595   3.199902   3.226386   4.163587
    10  Cl   2.460755   3.250826   4.560691   4.291064   3.253956
    11  Cl   2.414364   3.208801   3.174655   4.178036   3.300673
                    6          7          8          9         10
     6  O    0.000000
     7  O    2.146773   0.000000
     8  Br   3.370088   4.402368   0.000000
     9  Cl   3.278555   4.181758   3.608009   0.000000
    10  Cl   5.261726   5.221196   3.594615   3.440756   0.000000
    11  Cl   4.179896   3.211844   3.537893   4.829994   3.483202
                   11
    11  Cl   0.000000
 Stoichiometry    BrCl3N2O4Pt(2-)
 Framework group  C1[X(BrCl3N2O4Pt)]
 Deg. of freedom    27
 Full point group                 C1      NOp   1
 Largest Abelian subgroup         C1      NOp   1
 Largest concise Abelian subgroup C1      NOp   1
                         Standard orientation:                         
 ---------------------------------------------------------------------
 Center     Atomic      Atomic             Coordinates (Angstroms)
 Number     Number       Type             X           Y           Z
 ---------------------------------------------------------------------
      1         78           0       -0.147741   -0.085102    0.021623
      2          7           0       -2.255140   -0.146507    0.091802
      3          7           0       -0.271359    1.980635   -0.336220
      4          8           0       -2.814360    0.768015    0.665830
      5          8           0       -2.827633   -1.071772   -0.443288
      6          8           0        0.488085    2.724908    0.249319
      7          8           0       -1.123642    2.355181   -1.119722
      8         35           0        2.458866    0.012419   -0.091154
      9         17           0       -0.130138    0.330238    2.401592
     10         17           0       -0.047919   -2.505421    0.454525
     11         17           0       -0.211981   -0.462834   -2.362143
 ---------------------------------------------------------------------
 Rotational constants (GHZ):      0.5261988      0.3974057      0.3725219

 **********************************************************************

            Population analysis using the SCF density.

 **********************************************************************

 Orbital symmetries:
       Occupied  (A) (A) (A) (A) (A) (A) (A) (A) (A) (A) (A) (A)
                 (A) (A) (A) (A) (A) (A) (A) (A) (A) (A) (A) (A)
                 (A) (A) (A) (A) (A) (A) (A) (A) (A) (A) (A) (A)
                 (A) (A) (A) (A) (A) (A) (A) (A) (A) (A) (A) (A)
                 (A) (A) (A) (A) (A) (A) (A) (A) (A) (A) (A) (A)
                 (A) (A) (A) (A) (A) (A) (A) (A) (A) (A) (A) (A)
                 (A) (A) (A) (A)
       Virtual   (A) (A) (A) (A) (A) (A) (A) (A) (A) (A) (A) (A)
                 (A) (A) (A) (A) (A) (A) (A) (A) (A) (A) (A) (A)
                 (A) (A) (A) (A) (A) (A) (A) (A) (A) (A) (A) (A)
                 (A) (A) (A) (A) (A) (A) (A) (A) (A) (A) (A) (A)
                 (A) (A) (A) (A) (A) (A) (A) (A) (A) (A) (A) (A)
                 (A) (A) (A) (A) (A) (A) (A) (A) (A) (A) (A) (A)
                 (A) (A) (A) (A) (A) (A) (A) (A) (A) (A) (A) (A)
                 (A) (A) (A) (A) (A) (A) (A) (A) (A) (A) (A) (A)
                 (A) (A) (A) (A) (A) (A) (A) (A) (A) (A) (A) (A)
                 (A) (A) (A) (A) (A) (A) (A) (A)
 The electronic state is 1-A.
 Alpha  occ. eigenvalues -- -482.73396-101.45261-101.45255-101.43489 -62.41513
 Alpha  occ. eigenvalues --  -56.24676 -56.24435 -56.24430 -19.16304 -19.16184
 Alpha  occ. eigenvalues --  -19.16067 -19.15962 -14.53355 -14.53247  -9.40451
 Alpha  occ. eigenvalues --   -9.40443  -9.38684  -8.63218  -7.17261  -7.17253
 Alpha  occ. eigenvalues --   -7.16430  -7.16428  -7.16424  -7.16423  -7.15407
 Alpha  occ. eigenvalues --   -7.14716  -7.14706  -6.46276  -6.45424  -6.45409
 Alpha  occ. eigenvalues --   -4.01482  -2.57743  -2.57511  -2.57499  -2.56831
 Alpha  occ. eigenvalues --   -2.56831  -2.22557  -2.22549  -2.22437  -1.20805
 Alpha  occ. eigenvalues --   -1.20468  -1.03938  -1.03559  -0.76057  -0.74858
 Alpha  occ. eigenvalues --   -0.73635  -0.70578  -0.63520  -0.62935  -0.54070
 Alpha  occ. eigenvalues --   -0.53107  -0.52144  -0.51138  -0.50379  -0.50102
 Alpha  occ. eigenvalues --   -0.40197  -0.37453  -0.37183  -0.36055  -0.35942
 Alpha  occ. eigenvalues --   -0.34286  -0.31757  -0.31598  -0.30766  -0.29210
 Alpha  occ. eigenvalues --   -0.29123  -0.27784  -0.27600  -0.25761  -0.25701
 Alpha  occ. eigenvalues --   -0.25593  -0.25455  -0.25203  -0.24725  -0.24248
 Alpha  occ. eigenvalues --   -0.24082
 Alpha virt. eigenvalues --   -0.10794  -0.09338  -0.04917  -0.04617   0.05566
 Alpha virt. eigenvalues --    0.05785   0.06308   0.09608   0.23089   0.23505
 Alpha virt. eigenvalues --    0.24820   0.29444   0.31699   0.37000   0.37632
 Alpha virt. eigenvalues --    0.38486   0.41154   0.42395   0.43941   0.47319
 Alpha virt. eigenvalues --    0.52177   0.55329   0.58597   0.59881   0.61064
 Alpha virt. eigenvalues --    0.61691   0.64849   0.65177   0.68513   0.69297
 Alpha virt. eigenvalues --    0.70090   0.71343   0.72312   0.74137   0.75422
 Alpha virt. eigenvalues --    0.76624   0.79399   0.80728   0.81002   0.82314
 Alpha virt. eigenvalues --    0.82523   0.82803   0.83069   0.83580   0.83814
 Alpha virt. eigenvalues --    0.86392   0.86899   0.89120   0.89700   0.91223
 Alpha virt. eigenvalues --    0.92262   0.93058   0.94079   0.94851   0.95533
 Alpha virt. eigenvalues --    0.97291   0.98651   0.99720   1.03415   1.04003
 Alpha virt. eigenvalues --    1.04684   1.05552   1.06334   1.08022   1.08534
 Alpha virt. eigenvalues --    1.10484   1.12399   1.13457   1.15877   1.17300
 Alpha virt. eigenvalues --    1.17831   1.26653   1.30146   1.33849   1.36751
 Alpha virt. eigenvalues --    1.38506   1.39306   1.41959   1.45135   1.47783
 Alpha virt. eigenvalues --    1.81130   1.85179   1.94423   1.95529   2.02527
 Alpha virt. eigenvalues --    2.04134   2.38579   2.40222   2.42043   2.42687
 Alpha virt. eigenvalues --    2.60883   2.61626   2.62885   2.63135   2.64535
 Alpha virt. eigenvalues --    2.65714   2.71220   2.71306   3.00449   3.01393
 Alpha virt. eigenvalues --    3.05546   3.05799   3.30298   3.30866   3.34145
 Alpha virt. eigenvalues --    3.39542   3.46526   3.47943   3.55105   3.55944
 Alpha virt. eigenvalues --    3.70071   3.70707   3.72112   3.75481   3.77130
 Alpha virt. eigenvalues --    7.20890
          Condensed to atoms (all electrons):
               1          2          3          4          5          6
     1  Pt  17.067076   0.099450   0.117078  -0.027223  -0.019082  -0.024512
     2  N    0.099450   6.234144  -0.010796   0.271438   0.282761  -0.000015
     3  N    0.117078  -0.010796   6.226485  -0.000762  -0.000011   0.284684
     4  O   -0.027223   0.271438  -0.000762   8.111610  -0.099009  -0.000076
     5  O   -0.019082   0.282761  -0.000011  -0.099009   8.084963   0.000000
     6  O   -0.024512  -0.000015   0.284684  -0.000076   0.000000   8.094032
     7  O   -0.028427  -0.000564   0.268334  -0.000270  -0.000059  -0.099803
     8  Br   0.233423  -0.001937  -0.007638   0.000062   0.000057  -0.000297
     9  Cl   0.249856  -0.011091  -0.009097  -0.000223  -0.000092  -0.000056
    10  Cl   0.256170  -0.007237  -0.001107   0.000003  -0.000426   0.000018
    11  Cl   0.249241  -0.009151  -0.010672  -0.000040  -0.000109  -0.000096
               7          8          9         10         11
     1  Pt  -0.028427   0.233423   0.249856   0.256170   0.249241
     2  N   -0.000564  -0.001937  -0.011091  -0.007237  -0.009151
     3  N    0.268334  -0.007638  -0.009097  -0.001107  -0.010672
     4  O   -0.000270   0.000062  -0.000223   0.000003  -0.000040
     5  O   -0.000059   0.000057  -0.000092  -0.000426  -0.000109
     6  O   -0.099803  -0.000297  -0.000056   0.000018  -0.000096
     7  O    8.120217  -0.000013  -0.000062   0.000021  -0.000411
     8  Br  -0.000013  35.091525  -0.008860  -0.008065  -0.011922
     9  Cl  -0.000062  -0.008860  17.042038  -0.009190  -0.000651
    10  Cl   0.000021  -0.008065  -0.009190  17.092869  -0.007398
    11  Cl  -0.000411  -0.011922  -0.000651  -0.007398  17.042746
 Mulliken charges:
               1
     1  Pt  -0.173050
     2  N    0.152999
     3  N    0.143501
     4  O   -0.255510
     5  O   -0.248992
     6  O   -0.253879
     7  O   -0.258963
     8  Br  -0.286337
     9  Cl  -0.252572
    10  Cl  -0.315658
    11  Cl  -0.251537
 Sum of Mulliken charges =  -2.00000
 Mulliken charges with hydrogens summed into heavy atoms:
               1
     1  Pt  -0.173050
     2  N    0.152999
     3  N    0.143501
     4  O   -0.255510
     5  O   -0.248992
     6  O   -0.253879
     7  O   -0.258963
     8  Br  -0.286337
     9  Cl  -0.252572
    10  Cl  -0.315658
    11  Cl  -0.251537
 Electronic spatial extent (au):  <R**2>=           3389.2492
 Charge=             -2.0000 electrons
 Dipole moment (field-independent basis, Debye):
    X=              0.6269    Y=              1.1524    Z=             -0.2386  Tot=              1.3334
 Quadrupole moment (field-independent basis, Debye-Ang):
   XX=           -146.1926   YY=           -146.0529   ZZ=           -138.5577
   XY=             -0.0031   XZ=             -1.9196   YZ=             -1.1597
 Traceless Quadrupole moment (field-independent basis, Debye-Ang):
   XX=             -2.5915   YY=             -2.4518   ZZ=              5.0433
   XY=             -0.0031   XZ=             -1.9196   YZ=             -1.1597
 Octapole moment (field-independent basis, Debye-Ang**2):
  XXX=             50.2738  YYY=             -2.4518  ZZZ=             -1.6894  XYY=             17.8371
  XXY=             -0.6403  XXZ=              0.6555  XZZ=             14.4708  YZZ=             -0.0047
  YYZ=             -0.3684  XYZ=             -0.0343
 Hexadecapole moment (field-independent basis, Debye-Ang**3):
 XXXX=          -1766.0536 YYYY=          -1436.6443 ZZZZ=          -1186.1109 XXXY=             -1.2378
 XXXZ=              0.0943 YYYX=             -2.1036 YYYZ=             14.7564 ZZZX=             -7.0221
 ZZZY=             -7.2891 XXYY=           -511.6072 XXZZ=           -462.1201 YYZZ=           -414.9207
 XXYZ=            -12.1389 YYXZ=            -17.4505 ZZXY=              7.0743
 N-N= 1.623325284737D+03 E-N=-1.394015228972D+04  KE= 4.393114363168D+03
 1\1\GINC-NQTCM01\FOpt\RB3LYP\Gen\Br1Cl3N2O4Pt1(2-)\NQTCM\10-May-2022\0
 \\#b3lyp/gen pseudo=read opt=(loose,cartesian) scrf=(solvent=water)\\E
 strutura 42\\-2,1\Pt,0.1424617679,-0.0862726435,-0.0213557231\N,2.2497
 480461,-0.151626822,-0.0913609785\N,0.2691899768,1.9836298261,0.310375
 6065\O,2.8101197767,0.7547688252,-0.6770361149\O,2.8210596712,-1.07090
 41244,0.4551894636\O,-0.4893509144,2.7215657926,-0.2842837704\O,1.1222
 561491,2.36678336,1.0888469207\Br,-2.4639656929,0.0164590905,0.0909328
 691\Cl,0.1247335629,0.2990499936,-2.4063676311\Cl,0.0389912249,-2.5117
 104837,-0.4236743977\Cl,0.2068834317,-0.4340108144,2.3669657558\\Versi
 on=EM64L-G09RevD.01\State=1-A\HF=-4483.6037888\RMSD=8.212e-09\RMSF=1.2
 21e-04\Dipole=-0.245961,0.4549021,0.0882381\Quadrupole=-1.9276117,-1.8
 001678,3.7277796,-0.0152507,-1.4240697,0.9342837\PG=C01 [X(Br1Cl3N2O4P
 t1)]\\@


 ONLY A FOOL KNOWS EVERYTHING.

               -- THE CHEMIST ANALYST, SEPTEMBER 1946
 Job cpu time:       0 days  0 hours  9 minutes 28.2 seconds.
 File lengths (MBytes):  RWF=    104 Int=      0 D2E=      0 Chk=      5 Scr=      1
 Normal termination of Gaussian 09 at Tue May 10 10:43:46 2022.
