 Entering Gaussian System, Link 0=g09
 Input=/home/nqtcm/milena/47_D2O.com
 Output=/home/nqtcm/milena/47_D2O.log
 Initial command:
 /scr/programas/g09/l1.exe "/scr/nqtcm/Gau-32095.inp" -scrdir="/scr/nqtcm/"
 Entering Link 1 = /scr/programas/g09/l1.exe PID=     32097.
  
 Copyright (c) 1988,1990,1992,1993,1995,1998,2003,2009,2013,
            Gaussian, Inc.  All Rights Reserved.
  
 This is part of the Gaussian(R) 09 program.  It is based on
 the Gaussian(R) 03 system (copyright 2003, Gaussian, Inc.),
 the Gaussian(R) 98 system (copyright 1998, Gaussian, Inc.),
 the Gaussian(R) 94 system (copyright 1995, Gaussian, Inc.),
 the Gaussian 92(TM) system (copyright 1992, Gaussian, Inc.),
 the Gaussian 90(TM) system (copyright 1990, Gaussian, Inc.),
 the Gaussian 88(TM) system (copyright 1988, Gaussian, Inc.),
 the Gaussian 86(TM) system (copyright 1986, Carnegie Mellon
 University), and the Gaussian 82(TM) system (copyright 1983,
 Carnegie Mellon University). Gaussian is a federally registered
 trademark of Gaussian, Inc.
  
 This software contains proprietary and confidential information,
 including trade secrets, belonging to Gaussian, Inc.
  
 This software is provided under written license and may be
 used, copied, transmitted, or stored only in accord with that
 written license.
  
 The following legend is applicable only to US Government
 contracts under FAR:
  
                    RESTRICTED RIGHTS LEGEND
  
 Use, reproduction and disclosure by the US Government is
 subject to restrictions as set forth in subparagraphs (a)
 and (c) of the Commercial Computer Software - Restricted
 Rights clause in FAR 52.227-19.
  
 Gaussian, Inc.
 340 Quinnipiac St., Bldg. 40, Wallingford CT 06492
  
  
 ---------------------------------------------------------------
 Warning -- This program may not be used in any manner that
 competes with the business of Gaussian, Inc. or will provide
 assistance to any competitor of Gaussian, Inc.  The licensee
 of this program is prohibited from giving any competitor of
 Gaussian, Inc. access to this program.  By using this program,
 the user acknowledges that Gaussian, Inc. is engaged in the
 business of creating and licensing software in the field of
 computational chemistry and represents and warrants to the
 licensee that it is not a competitor of Gaussian, Inc. and that
 it will not use this program in any manner prohibited above.
 ---------------------------------------------------------------
  

 Cite this work as:
 Gaussian 09, Revision D.01,
 M. J. Frisch, G. W. Trucks, H. B. Schlegel, G. E. Scuseria, 
 M. A. Robb, J. R. Cheeseman, G. Scalmani, V. Barone, B. Mennucci, 
 G. A. Petersson, H. Nakatsuji, M. Caricato, X. Li, H. P. Hratchian, 
 A. F. Izmaylov, J. Bloino, G. Zheng, J. L. Sonnenberg, M. Hada, 
 M. Ehara, K. Toyota, R. Fukuda, J. Hasegawa, M. Ishida, T. Nakajima, 
 Y. Honda, O. Kitao, H. Nakai, T. Vreven, J. A. Montgomery, Jr., 
 J. E. Peralta, F. Ogliaro, M. Bearpark, J. J. Heyd, E. Brothers, 
 K. N. Kudin, V. N. Staroverov, T. Keith, R. Kobayashi, J. Normand, 
 K. Raghavachari, A. Rendell, J. C. Burant, S. S. Iyengar, J. Tomasi, 
 M. Cossi, N. Rega, J. M. Millam, M. Klene, J. E. Knox, J. B. Cross, 
 V. Bakken, C. Adamo, J. Jaramillo, R. Gomperts, R. E. Stratmann, 
 O. Yazyev, A. J. Austin, R. Cammi, C. Pomelli, J. W. Ochterski, 
 R. L. Martin, K. Morokuma, V. G. Zakrzewski, G. A. Voth, 
 P. Salvador, J. J. Dannenberg, S. Dapprich, A. D. Daniels, 
 O. Farkas, J. B. Foresman, J. V. Ortiz, J. Cioslowski, 
 and D. J. Fox, Gaussian, Inc., Wallingford CT, 2013.
 
 ******************************************
 Gaussian 09:  EM64L-G09RevD.01 24-Apr-2013
                10-May-2022 
 ******************************************
 %mem=7gb
 %nproc=4
 Will use up to    4 processors via shared memory.
 -----------------------------------------------------------------
 #b3lyp/gen pseudo=read opt=(loose,cartesian) scrf=(solvent=water)
 -----------------------------------------------------------------
 1/7=-1,10=7,14=-1,18=10,26=3,38=1/1,3;
 2/12=2,17=6,18=5,29=2,40=1/2;
 3/5=7,11=2,16=1,17=8,25=1,30=1,70=2201,71=1,72=1,74=-5/1,2,3;
 4//1;
 5/5=2,38=5,53=1/2;
 6/7=2,8=2,9=2,10=2,28=1/1;
 7/7=1,29=1/1,2,3,16;
 1/7=-1,10=7,14=-1,18=10,26=3/3(2);
 2/29=1/2;
 99/12=1/99;
 2/29=1/2;
 3/5=7,6=1,11=2,16=1,17=8,25=1,30=1,70=2205,71=1,72=1,74=-5,82=7/1,2,3;
 4/5=5,16=3,69=1/1;
 5/5=2,38=5,53=1/2;
 7/7=1/1,2,3,16;
 1/7=-1,14=-1,18=10,26=3/3(-5);
 2/29=1/2;
 6/7=2,8=2,9=2,10=2,19=2,28=1/1;
 99/9=1,12=1/99;
 ------------
 Estrutura 47
 ------------
 Symbolic Z-matrix:
 Charge = -2 Multiplicity = 1
 Pt                   -0.10831  -0.10975  -0.20891 
 N                    -2.16029   0.17716  -0.61914 
 N                    -0.44682  -2.19445  -0.21917 
 O                    -2.67557  -0.55707  -1.44492 
 O                    -2.77378   1.04454  -0.02589 
 O                     0.34384  -2.91734  -0.7955 
 O                    -1.44484  -2.61275   0.34325 
 Br                   -0.55461  -0.05624   2.26982 
 Br                    0.28464   2.41878  -0.23243 
 Br                    2.37619  -0.48545   0.27618 
 Cl                    0.31669  -0.1574   -2.55458 
 

 GradGradGradGradGradGradGradGradGradGradGradGradGradGradGradGradGradGrad
 Berny optimization.
 Initialization pass.
 No Z-matrix variables, so optimization will use Cartesian coordinates.
 Trust Radius=3.00D-01 FncErr=1.00D-07 GrdErr=1.00D-06
 Number of steps in this run=     43 maximum allowed number of steps=    100.
 GradGradGradGradGradGradGradGradGradGradGradGradGradGradGradGradGradGrad

 ---------------------------------------------------------------------------------------------------
                            Z-MATRIX (ANGSTROMS AND DEGREES)
   CD    Cent   Atom    N1       Length/X        N2       Alpha/Y        N3        Beta/Z          J
 ---------------------------------------------------------------------------------------------------
      1      1  Pt       0  -0.108314         -0.109750         -0.208906
      2      2  N        0  -2.160289          0.177159         -0.619144
      3      3  N        0  -0.446820         -2.194446         -0.219165
      4      4  O        0  -2.675573         -0.557068         -1.444923
      5      5  O        0  -2.773783          1.044538         -0.025890
      6      6  O        0   0.343840         -2.917341         -0.795497
      7      7  O        0  -1.444836         -2.612746          0.343245
      8      8  Br       0  -0.554614         -0.056237          2.269823
      9      9  Br       0   0.284638          2.418778         -0.232430
     10     10  Br       0   2.376187         -0.485449          0.276184
     11     11  Cl       0   0.316688         -0.157399         -2.554580
 ---------------------------------------------------------------------------------------------------
                         Z-Matrix orientation:                         
 ---------------------------------------------------------------------
 Center     Atomic      Atomic             Coordinates (Angstroms)
 Number     Number       Type             X           Y           Z
 ---------------------------------------------------------------------
      1         78           0       -0.108314   -0.109750   -0.208906
      2          7           0       -2.160289    0.177159   -0.619144
      3          7           0       -0.446820   -2.194446   -0.219165
      4          8           0       -2.675573   -0.557068   -1.444923
      5          8           0       -2.773783    1.044538   -0.025890
      6          8           0        0.343840   -2.917341   -0.795497
      7          8           0       -1.444836   -2.612746    0.343245
      8         35           0       -0.554614   -0.056237    2.269823
      9         35           0        0.284638    2.418778   -0.232430
     10         35           0        2.376187   -0.485449    0.276184
     11         17           0        0.316688   -0.157399   -2.554580
 ---------------------------------------------------------------------
                    Distance matrix (angstroms):
                    1          2          3          4          5
     1  Pt   0.000000
     2  N    2.112158   0.000000
     3  N    2.112025   2.953044   0.000000
     4  O    2.884207   1.219228   3.025034   0.000000
     5  O    2.910430   1.216828   3.992885   2.142065   0.000000
     6  O    2.903636   3.984682   1.216503   3.887094   5.099839
     7  O    2.890701   3.036715   1.219556   2.989661   3.908719
     8  Br   2.519156   3.313427   3.283081   4.306813   3.377383
     9  Br   2.558988   3.339472   4.670872   4.369056   3.359335
    10  Br   2.559142   4.671218   3.336976   5.337379   5.380920
    11  Cl   2.384341   3.161211   3.191656   3.216318   4.170124
                    6          7          8          9         10
     6  O    0.000000
     7  O    2.142166   0.000000
     8  Br   4.288277   3.322640   0.000000
     9  Br   5.366071   5.351515   3.618192   0.000000
    10  Br   3.345599   4.373798   3.570492   3.614941   0.000000
    11  Cl   3.272979   4.186775   4.903495   3.468443   3.516017
                   11
    11  Cl   0.000000
 Stoichiometry    Br3ClN2O4Pt(2-)
 Framework group  C1[X(Br3ClN2O4Pt)]
 Deg. of freedom    27
 Full point group                 C1      NOp   1
 Largest Abelian subgroup         C1      NOp   1
 Largest concise Abelian subgroup C1      NOp   1
                         Standard orientation:                         
 ---------------------------------------------------------------------
 Center     Atomic      Atomic             Coordinates (Angstroms)
 Number     Number       Type             X           Y           Z
 ---------------------------------------------------------------------
      1         78           0       -0.108316   -0.109748   -0.208906
      2          7           0       -2.160285    0.177204   -0.619144
      3          7           0       -0.446866   -2.194437   -0.219165
      4          8           0       -2.675585   -0.557012   -1.444923
      5          8           0       -2.773761    1.044596   -0.025890
      6          8           0        0.343779   -2.917348   -0.795497
      7          8           0       -1.444890   -2.612716    0.343245
      8         35           0       -0.554615   -0.056225    2.269823
      9         35           0        0.284688    2.418772   -0.232430
     10         35           0        2.376177   -0.485498    0.276184
     11         17           0        0.316685   -0.157406   -2.554580
 ---------------------------------------------------------------------
 Rotational constants (GHZ):      0.3321520      0.3304715      0.3076990
 General basis read from cards:  (5D, 7F)
 ======================================================================================================
                                       Pseudopotential Parameters
 ======================================================================================================
  Center     Atomic      Valence      Angular      Power
  Number     Number     Electrons     Momentum     of R      Exponent        Coefficient   SO-Coeffient
 ======================================================================================================
    1         78           18
                                      G and up 
                                                     1      728.9394056       -0.16192680    0.00000000
                                                     2      320.6567800    -1320.28738520    0.00000000
                                                     2       52.8680174     -298.31781350    0.00000000
                                                     2       12.0280128      -87.58370650    0.00000000
                                                     2        3.5238913       -8.14932740    0.00000000
                                      S - G
                                                     0      409.4437358        2.73342180    0.00000000
                                                     1      274.5419231       59.70243290    0.00000000
                                                     2      127.5658570      891.45895500    0.00000000
                                                     2       32.9036631      368.44676560    0.00000000
                                                     2        5.0593880      238.02630900    0.00000000
                                                     2        4.1506556     -107.05564540    0.00000000
                                      P - G
                                                     0      466.1728892        1.88785680    0.00000000
                                                     1      120.7888259       76.01386290    0.00000000
                                                     2       36.4118791      343.55111160    0.00000000
                                                     2        5.6985408      119.49117860    0.00000000
                                      D - G
                                                     0      249.5650763        2.93436780    0.00000000
                                                     1      126.6678585       59.33065710    0.00000000
                                                     2       63.1430586      452.44451940    0.00000000
                                                     2       17.9059470      210.47694790    0.00000000
                                                     2        4.2239373       58.62541120    0.00000000
                                      F - G
                                                     0      121.8158799        3.95342530    0.00000000
                                                     1       60.8757030       53.85551820    0.00000000
                                                     2       31.4767147      247.43051330    0.00000000
                                                     2        9.8811751      127.81879760    0.00000000
                                                     2        2.7319874       15.37720460    0.00000000
    2          7
                                   No pseudopotential on this center.
    3          7
                                   No pseudopotential on this center.
    4          8
                                   No pseudopotential on this center.
    5          8
                                   No pseudopotential on this center.
    6          8
                                   No pseudopotential on this center.
    7          8
                                   No pseudopotential on this center.
    8         35
                                   No pseudopotential on this center.
    9         35
                                   No pseudopotential on this center.
   10         35
                                   No pseudopotential on this center.
   11         17
                                   No pseudopotential on this center.
 ======================================================================================================
 There are   238 symmetry adapted cartesian basis functions of A   symmetry.
 There are   220 symmetry adapted basis functions of A   symmetry.
   220 basis functions,   470 primitive gaussians,   238 cartesian basis functions
    94 alpha electrons       94 beta electrons
       nuclear repulsion energy      2375.6746443205 Hartrees.
 NAtoms=   11 NActive=   11 NUniq=   11 SFac= 1.00D+00 NAtFMM=   60 NAOKFM=F Big=F
 Integral buffers will be    131072 words long.
 Raffenetti 2 integral format.
 Two-electron integral symmetry is turned on.
 ------------------------------------------------------------------------------
 Polarizable Continuum Model (PCM)
 =================================
 Model                : PCM (using non-symmetric T matrix).
 Atomic radii         : UFF (Universal Force Field).
 Polarization charges : Total charges.
 Charge compensation  : None.
 Solution method      : On-the-fly selection.
 Cavity type          : Scaled VdW (van der Waals Surface) (Alpha=1.100).
 Cavity algorithm     : GePol (No added spheres)
                        Default sphere list used, NSphG=   11.
                        Lebedev-Laikov grids with approx.  5.0 points / Ang**2.
                        Smoothing algorithm: Karplus/York (Gamma=1.0000).
                        Polarization charges: spherical gaussians, with
                                              point-specific exponents (IZeta= 3).
                        Self-potential: point-specific (ISelfS= 7).
                        Self-field    : sphere-specific E.n sum rule (ISelfD= 2).
 1st derivatives      : Analytical E(r).r(x)/FMM algorithm (CHGder, D1EAlg=3).
                        Cavity 1st derivative terms included.
 Solvent              : Water, Eps=  78.355300 Eps(inf)=   1.777849
 ------------------------------------------------------------------------------
 Spheres list:
 ISph  on   Nord     Re0    Alpha      Xe            Ye            Ze
    1  Pt      1    1.3770  1.100     -0.108316     -0.109748     -0.208906
    2   N      2    1.8300  1.100     -2.160285      0.177204     -0.619144
    3   N      3    1.8300  1.100     -0.446866     -2.194437     -0.219165
    4   O      4    1.7500  1.100     -2.675585     -0.557012     -1.444923
    5   O      5    1.7500  1.100     -2.773761      1.044596     -0.025890
    6   O      6    1.7500  1.100      0.343779     -2.917348     -0.795497
    7   O      7    1.7500  1.100     -1.444890     -2.612716      0.343245
    8  Br      8    2.0945  1.100     -0.554615     -0.056225      2.269823
    9  Br      9    2.0945  1.100      0.284688      2.418772     -0.232430
   10  Br     10    2.0945  1.100      2.376177     -0.485498      0.276184
   11  Cl     11    1.9735  1.100      0.316685     -0.157406     -2.554580
 ------------------------------------------------------------------------------
 One-electron integrals computed using PRISM.
   1 Symmetry operations used in ECPInt.
 ECPInt:  NShTT=    3916 NPrTT=   19538 LenC2=    3545 LenP2D=   12028.
 LDataN:  DoStor=T MaxTD1= 6 Len=  172
 NBasis=   220 RedAO= T EigKep=  4.81D-03  NBF=   220
 NBsUse=   220 1.00D-06 EigRej= -1.00D+00 NBFU=   220
 Defaulting to unpruned grid for atomic number  78.
 ExpMin= 2.90D-02 ExpMax= 1.13D+05 ExpMxC= 1.70D+04 IAcc=3 IRadAn=         5 AccDes= 0.00D+00
 Harris functional with IExCor=  402 and IRadAn=       5 diagonalized for initial guess.
 HarFok:  IExCor=  402 AccDes= 0.00D+00 IRadAn=         5 IDoV= 1 UseB2=F ITyADJ=14
 ICtDFT=  3500011 ScaDFX=  1.000000  1.000000  1.000000  1.000000
 Defaulting to unpruned grid for atomic number  78.
 Defaulting to unpruned grid for atomic number  78.
 Defaulting to unpruned grid for atomic number  78.
 Defaulting to unpruned grid for atomic number  78.
 FoFCou: FMM=F IPFlag=           0 FMFlag=      100000 FMFlg1=           0
         NFxFlg=           0 DoJE=T BraDBF=F KetDBF=T FulRan=T
         wScrn=  0.000000 ICntrl=     500 IOpCl=  0 I1Cent=   200000004 NGrid=           0
         NMat0=    1 NMatS0=      1 NMatT0=    0 NMatD0=    1 NMtDS0=    0 NMtDT0=    0
 Petite list used in FoFCou.
 Keep R1 ints in memory in canonical form, NReq=302517713.
 Requested convergence on RMS density matrix=1.00D-08 within 128 cycles.
 Requested convergence on MAX density matrix=1.00D-06.
 Requested convergence on             energy=1.00D-06.
 No special actions if energy rises.
 Defaulting to unpruned grid for atomic number  78.
 Defaulting to unpruned grid for atomic number  78.
 Defaulting to unpruned grid for atomic number  78.
 Defaulting to unpruned grid for atomic number  78.
 Inv3:  Mode=1 IEnd=     9082800.
 Iteration    1 A*A^-1 deviation from unit magnitude is 7.55D-15 for    641.
 Iteration    1 A*A^-1 deviation from orthogonality  is 3.40D-15 for   1274    874.
 Iteration    1 A^-1*A deviation from unit magnitude is 7.44D-15 for     90.
 Iteration    1 A^-1*A deviation from orthogonality  is 3.95D-14 for    876    654.
 Error on total polarization charges =  0.01282
 SCF Done:  E(RB3LYP) =  -8711.21822406     A.U. after   17 cycles
            NFock= 17  Conv=0.51D-08     -V/T= 2.0110

 **********************************************************************

            Population analysis using the SCF density.

 **********************************************************************

 Orbital symmetries:
       Occupied  (A) (A) (A) (A) (A) (A) (A) (A) (A) (A) (A) (A)
                 (A) (A) (A) (A) (A) (A) (A) (A) (A) (A) (A) (A)
                 (A) (A) (A) (A) (A) (A) (A) (A) (A) (A) (A) (A)
                 (A) (A) (A) (A) (A) (A) (A) (A) (A) (A) (A) (A)
                 (A) (A) (A) (A) (A) (A) (A) (A) (A) (A) (A) (A)
                 (A) (A) (A) (A) (A) (A) (A) (A) (A) (A) (A) (A)
                 (A) (A) (A) (A) (A) (A) (A) (A) (A) (A) (A) (A)
                 (A) (A) (A) (A) (A) (A) (A) (A) (A) (A)
       Virtual   (A) (A) (A) (A) (A) (A) (A) (A) (A) (A) (A) (A)
                 (A) (A) (A) (A) (A) (A) (A) (A) (A) (A) (A) (A)
                 (A) (A) (A) (A) (A) (A) (A) (A) (A) (A) (A) (A)
                 (A) (A) (A) (A) (A) (A) (A) (A) (A) (A) (A) (A)
                 (A) (A) (A) (A) (A) (A) (A) (A) (A) (A) (A) (A)
                 (A) (A) (A) (A) (A) (A) (A) (A) (A) (A) (A) (A)
                 (A) (A) (A) (A) (A) (A) (A) (A) (A) (A) (A) (A)
                 (A) (A) (A) (A) (A) (A) (A) (A) (A) (A) (A) (A)
                 (A) (A) (A) (A) (A) (A) (A) (A) (A) (A) (A) (A)
                 (A) (A) (A) (A) (A) (A) (A) (A) (A) (A) (A) (A)
                 (A) (A) (A) (A) (A) (A)
 The electronic state is 1-A.
 Alpha  occ. eigenvalues -- -482.74894-482.73650-482.73645-101.45085 -62.43017
 Alpha  occ. eigenvalues --  -62.41775 -62.41769 -56.26215 -56.25918 -56.25917
 Alpha  occ. eigenvalues --  -56.24944 -56.24939 -56.24692 -56.24687 -56.24686
 Alpha  occ. eigenvalues --  -56.24682 -19.15751 -19.15741 -19.15669 -19.15659
 Alpha  occ. eigenvalues --  -14.52792 -14.52790  -9.40303  -8.64745  -8.63494
 Alpha  occ. eigenvalues --   -8.63488  -7.17109  -7.16280  -7.16278  -6.47931
 Alpha  occ. eigenvalues --   -6.46879  -6.46876  -6.46583  -6.46578  -6.45684
 Alpha  occ. eigenvalues --   -6.45678  -6.45669  -6.45663  -4.01271  -2.59375
 Alpha  occ. eigenvalues --   -2.59084  -2.59082  -2.58256  -2.58255  -2.58046
 Alpha  occ. eigenvalues --   -2.58042  -2.57800  -2.57796  -2.57789  -2.57783
 Alpha  occ. eigenvalues --   -2.57083  -2.57083  -2.57077  -2.57076  -2.22363
 Alpha  occ. eigenvalues --   -2.22353  -2.22300  -1.20181  -1.19935  -1.03110
 Alpha  occ. eigenvalues --   -1.02882  -0.75642  -0.72453  -0.71167  -0.70668
 Alpha  occ. eigenvalues --   -0.63200  -0.62631  -0.53555  -0.52656  -0.51673
 Alpha  occ. eigenvalues --   -0.50665  -0.49923  -0.49718  -0.40027  -0.37345
 Alpha  occ. eigenvalues --   -0.37190  -0.35942  -0.35880  -0.34446  -0.31293
 Alpha  occ. eigenvalues --   -0.31064  -0.30390  -0.28678  -0.28659  -0.27227
 Alpha  occ. eigenvalues --   -0.27086  -0.25417  -0.25311  -0.25039  -0.24833
 Alpha  occ. eigenvalues --   -0.24538  -0.23917  -0.23786  -0.23595
 Alpha virt. eigenvalues --   -0.10550  -0.09332  -0.04771  -0.04437   0.05519
 Alpha virt. eigenvalues --    0.05834   0.06330   0.09424   0.21986   0.22244
 Alpha virt. eigenvalues --    0.23699   0.29021   0.31925   0.35498   0.36142
 Alpha virt. eigenvalues --    0.36359   0.39256   0.40554   0.41420   0.44195
 Alpha virt. eigenvalues --    0.44498   0.46023   0.47991   0.54927   0.55481
 Alpha virt. eigenvalues --    0.55691   0.56337   0.57099   0.57206   0.57551
 Alpha virt. eigenvalues --    0.57623   0.59140   0.59326   0.61477   0.61913
 Alpha virt. eigenvalues --    0.62123   0.65499   0.66476   0.67176   0.69614
 Alpha virt. eigenvalues --    0.70246   0.72356   0.73112   0.78177   0.78878
 Alpha virt. eigenvalues --    0.80322   0.81709   0.84019   0.85585   0.88299
 Alpha virt. eigenvalues --    0.89557   0.90271   0.91311   0.91723   0.92737
 Alpha virt. eigenvalues --    0.93182   0.94035   0.94617   0.97075   0.98284
 Alpha virt. eigenvalues --    1.00690   1.02005   1.03770   1.04281   1.06651
 Alpha virt. eigenvalues --    1.07313   1.08996   1.09526   1.12926   1.13932
 Alpha virt. eigenvalues --    1.14622   1.16493   1.20979   1.27214   1.28962
 Alpha virt. eigenvalues --    1.34987   1.38764   1.39051   1.43164   1.44809
 Alpha virt. eigenvalues --    1.81505   1.84842   1.94585   1.95558   2.03181
 Alpha virt. eigenvalues --    2.03547   2.39618   2.40646   2.42216   2.44077
 Alpha virt. eigenvalues --    2.61281   2.61794   2.63242   2.63439   2.65075
 Alpha virt. eigenvalues --    2.66221   2.71392   2.71411   2.99076   2.99858
 Alpha virt. eigenvalues --    3.06245   3.06355   3.29495   3.29912   3.34974
 Alpha virt. eigenvalues --    3.39478   3.44755   3.45512   3.45555   3.45692
 Alpha virt. eigenvalues --    3.46436   3.47177   3.47968   3.52322   3.52820
 Alpha virt. eigenvalues --    3.56878   3.61030   3.63003   3.68533   3.71761
 Alpha virt. eigenvalues --    3.72334   3.75238   3.76890   3.78730   3.80325
 Alpha virt. eigenvalues --    8.97652
          Condensed to atoms (all electrons):
               1          2          3          4          5          6
     1  Pt  17.226501   0.110559   0.111319  -0.021853  -0.025368  -0.020094
     2  N    0.110559   6.229719  -0.011472   0.267624   0.290148  -0.000031
     3  N    0.111319  -0.011472   6.230265  -0.000381  -0.000005   0.283392
     4  O   -0.021853   0.267624  -0.000381   8.122630  -0.101843  -0.000062
     5  O   -0.025368   0.290148  -0.000005  -0.101843   8.097602   0.000000
     6  O   -0.020094  -0.000031   0.283392  -0.000062   0.000000   8.098284
     7  O   -0.027891  -0.000164   0.274044  -0.000323  -0.000057  -0.101701
     8  Br   0.229687  -0.013055  -0.015287  -0.000006   0.001102  -0.000088
     9  Br   0.242559  -0.010419  -0.002170   0.000006   0.000363   0.000063
    10  Br   0.242545  -0.002166  -0.010364   0.000071   0.000059   0.000024
    11  Cl   0.252451  -0.012788  -0.011094  -0.000164  -0.000060   0.000159
               7          8          9         10         11
     1  Pt  -0.027891   0.229687   0.242559   0.242545   0.252451
     2  N   -0.000164  -0.013055  -0.010419  -0.002166  -0.012788
     3  N    0.274044  -0.015287  -0.002170  -0.010364  -0.011094
     4  O   -0.000323  -0.000006   0.000006   0.000071  -0.000164
     5  O   -0.000057   0.001102   0.000363   0.000059  -0.000060
     6  O   -0.101701  -0.000088   0.000063   0.000024   0.000159
     7  O    8.122053   0.000979   0.000066   0.000019  -0.000031
     8  Br   0.000979  35.016292  -0.015159  -0.019069  -0.001576
     9  Br   0.000066  -0.015159  35.062101  -0.013338  -0.015632
    10  Br   0.000019  -0.019069  -0.013338  35.063273  -0.012572
    11  Cl  -0.000031  -0.001576  -0.015632  -0.012572  17.049369
 Mulliken charges:
               1
     1  Pt  -0.320415
     2  N    0.152043
     3  N    0.151753
     4  O   -0.265698
     5  O   -0.261941
     6  O   -0.259945
     7  O   -0.266994
     8  Br  -0.183820
     9  Br  -0.248440
    10  Br  -0.248481
    11  Cl  -0.248062
 Sum of Mulliken charges =  -2.00000
 Mulliken charges with hydrogens summed into heavy atoms:
               1
     1  Pt  -0.320415
     2  N    0.152043
     3  N    0.151753
     4  O   -0.265698
     5  O   -0.261941
     6  O   -0.259945
     7  O   -0.266994
     8  Br  -0.183820
     9  Br  -0.248440
    10  Br  -0.248481
    11  Cl  -0.248062
 Electronic spatial extent (au):  <R**2>=           4232.4129
 Charge=             -2.0000 electrons
 Dipole moment (field-independent basis, Debye):
    X=              0.9169    Y=              0.9850    Z=              2.0391  Tot=              2.4431
 Quadrupole moment (field-independent basis, Debye-Ang):
   XX=           -158.9684   YY=           -158.3447   ZZ=           -151.3981
   XY=             -0.0917   XZ=              0.3063   YZ=             -2.6557
 Traceless Quadrupole moment (field-independent basis, Debye-Ang):
   XX=             -2.7313   YY=             -2.1076   ZZ=              4.8390
   XY=             -0.0917   XZ=              0.3063   YZ=             -2.6557
 Octapole moment (field-independent basis, Debye-Ang**2):
  XXX=             51.0579  YYY=             45.5587  ZZZ=             45.3526  XYY=             16.3774
  XXY=             13.1084  XXZ=             17.4134  XZZ=             12.5656  YZZ=             12.9466
  YYZ=             17.3861  XYZ=              0.4053
 Hexadecapole moment (field-independent basis, Debye-Ang**3):
 XXXX=          -1747.8185 YYYY=          -1745.4522 ZZZZ=          -1455.2802 XXXY=              5.3673
 XXXZ=            -37.7859 YYYX=            -21.3980 YYYZ=            -27.1678 ZZZX=             -9.6809
 ZZZY=            -18.3642 XXYY=           -567.8281 XXZZ=           -520.8996 YYZZ=           -506.1390
 XXYZ=            -12.6470 YYXZ=             11.8603 ZZXY=             -7.6380
 N-N= 2.375674644321D+03 E-N=-2.557201473799D+04  KE= 8.616700348317D+03
   1 Symmetry operations used in ECPInt.
 ECPInt:  NShTT=    3916 NPrTT=   19538 LenC2=    3545 LenP2D=   12028.
 LDataN:  DoStor=T MaxTD1= 7 Len=  274
 D1PCM: PCM CHGder 1st derivatives, ID1Alg=3 FixD1E=F DoIter=F DoCFld=F I1PDM=0.
 Calling FoFJK, ICntrl=      2127 FMM=F ISym2X=0 I1Cent= 0 IOpClX= 0 NMat=1 NMatS=1 NMatT=0.
 Defaulting to unpruned grid for atomic number  78.
 Defaulting to unpruned grid for atomic number  78.
 Defaulting to unpruned grid for atomic number  78.
 Defaulting to unpruned grid for atomic number  78.
 ***** Axes restored to original set *****
 -------------------------------------------------------------------
 Center     Atomic                   Forces (Hartrees/Bohr)
 Number     Number              X              Y              Z
 -------------------------------------------------------------------
      1       78          -0.005269568   -0.003808145    0.000313320
      2        7          -0.007236633    0.000994848   -0.000307981
      3        7          -0.000718214   -0.007225041   -0.000312712
      4        8           0.003057159   -0.000736992    0.000970853
      5        8           0.003444789   -0.000758319   -0.000165416
      6        8          -0.000432641    0.002999599    0.000637385
      7        8           0.000354003    0.003506532   -0.000617350
      8       35          -0.001831850   -0.000216828    0.006700923
      9       35           0.000307187    0.007425102    0.000389917
     10       35           0.007316382   -0.001445541    0.001304232
     11       17           0.001009386   -0.000735217   -0.008913171
 -------------------------------------------------------------------
 Cartesian Forces:  Max     0.008913171 RMS     0.003636259

 GradGradGradGradGradGradGradGradGradGradGradGradGradGradGradGradGradGrad
 Berny optimization.
 Search for a local minimum.
 Step number   1 out of a maximum of   43
 All quantities printed in internal units (Hartrees-Bohrs-Radians)
 Second derivative matrix not updated -- first step.
 ITU=  0
     Eigenvalues ---    0.00240   0.00241   0.01282   0.02043   0.02674
     Eigenvalues ---    0.03422   0.04283   0.04311   0.05063   0.07359
     Eigenvalues ---    0.07691   0.08515   0.08752   0.11444   0.13778
     Eigenvalues ---    0.15818   0.18952   0.27557   0.31340   0.35075
     Eigenvalues ---    0.66028   1.54246   1.55404   2.01040   2.50867
     Eigenvalues ---    5.31404  12.05022
 RFO step:  Lambda=-1.99846800D-03 EMin= 2.39525873D-03
 Linear search not attempted -- first point.
 TrRot=  0.002065  0.001621  0.003330 -1.506439  0.000972  1.506643
 Variable       Old X    -DE/DX   Delta X   Delta X   Delta X     New X
                                 (Linear)    (Quad)   (Total)
    X1       -0.20468  -0.00527   0.00000  -0.00539  -0.00330  -0.20799
    Y1       -0.20740  -0.00381   0.00000  -0.00265  -0.00069  -0.20809
    Z1       -0.39478   0.00031   0.00000   0.00056   0.00370  -0.39108
    X2       -4.08235  -0.00724   0.00000  -0.01228  -0.01035  -4.09270
    Y2        0.33478   0.00099   0.00000  -0.01119  -0.00928   0.32550
    Z2       -1.17001  -0.00031   0.00000   0.00893   0.01283  -1.15719
    X3       -0.84437  -0.00072   0.00000  -0.00507  -0.00218  -0.84655
    Y3       -4.14690  -0.00723   0.00000  -0.00853  -0.00667  -4.15357
    Z3       -0.41416  -0.00031   0.00000  -0.01064  -0.01129  -0.42545
    X4       -5.05610   0.00306   0.00000  -0.01682  -0.01469  -5.07079
    Y4       -1.05271  -0.00074   0.00000  -0.09047  -0.08732  -1.14002
    Z4       -2.73051   0.00097   0.00000   0.08456   0.08710  -2.64341
    X5       -5.24169   0.00344   0.00000   0.02548   0.02713  -5.21456
    Y5        1.97389  -0.00076   0.00000   0.05682   0.05748   2.03137
    Z5       -0.04893  -0.00017   0.00000  -0.05649  -0.05087  -0.09979
    X6        0.64976  -0.00043   0.00000   0.03107   0.03416   0.68393
    Y6       -5.51298   0.00300   0.00000  -0.00359  -0.00040  -5.51338
    Z6       -1.50327   0.00064   0.00000   0.03789   0.03582  -1.46745
    X7       -2.73034   0.00035   0.00000  -0.05810  -0.05500  -2.78534
    Y7       -4.93737   0.00351   0.00000   0.02333   0.02384  -4.91353
    Z7        0.64864  -0.00062   0.00000  -0.08508  -0.08635   0.56229
    X8       -1.04807  -0.00183   0.00000  -0.01960  -0.01724  -1.06531
    Y8       -0.10627  -0.00022   0.00000  -0.01510  -0.01790  -0.12417
    Z8        4.28934   0.00670   0.00000   0.04318   0.04645   4.33580
    X9        0.53789   0.00031   0.00000  -0.00018   0.00091   0.53880
    Y9        4.57083   0.00743   0.00000   0.04931   0.05145   4.62228
    Z9       -0.43923   0.00039   0.00000   0.00693   0.01471  -0.42452
   X10        4.49034   0.00732   0.00000   0.04880   0.05108   4.54143
   Y10       -0.91737  -0.00145   0.00000  -0.01178  -0.00973  -0.92710
   Z10        0.52191   0.00130   0.00000  -0.00229  -0.00014   0.52177
   X11        0.59845   0.00101   0.00000  -0.01235  -0.01052   0.58793
   Y11       -0.29744  -0.00074   0.00000  -0.00727  -0.00079  -0.29823
   Z11       -4.82746  -0.00891   0.00000  -0.05497  -0.05197  -4.87943
         Item               Value     Threshold  Converged?
 Maximum Force            0.008913     0.002500     NO 
 RMS     Force            0.003636     0.001667     NO 
 Maximum Displacement     0.087316     0.010000     NO 
 RMS     Displacement     0.037847     0.006667     NO 
 Predicted change in Energy=-1.046447D-03
 GradGradGradGradGradGradGradGradGradGradGradGradGradGradGradGradGradGrad

                          Input orientation:                          
 ---------------------------------------------------------------------
 Center     Atomic      Atomic             Coordinates (Angstroms)
 Number     Number       Type             X           Y           Z
 ---------------------------------------------------------------------
      1         78           0       -0.110062   -0.110116   -0.206948
      2          7           0       -2.165765    0.172248   -0.612356
      3          7           0       -0.447974   -2.197976   -0.225137
      4          8           0       -2.683344   -0.603273   -1.398831
      5          8           0       -2.759429    1.074955   -0.052807
      6          8           0        0.361919   -2.917554   -0.776539
      7          8           0       -1.473940   -2.600129    0.297552
      8         35           0       -0.563739   -0.065707    2.294405
      9         35           0        0.285121    2.446006   -0.224648
     10         35           0        2.403219   -0.490600    0.276108
     11         17           0        0.311118   -0.157816   -2.582081
 ---------------------------------------------------------------------
                    Distance matrix (angstroms):
                    1          2          3          4          5
     1  Pt   0.000000
     2  N    2.114238   0.000000
     3  N    2.115107   2.952746   0.000000
     4  O    2.878467   1.219781   2.986221   0.000000
     5  O    2.906424   1.216721   4.010561   2.152677   0.000000
     6  O    2.903258   3.995375   1.215633   3.875148   5.119251
     7  O    2.883548   2.998771   1.219646   2.885794   3.909153
     8  Br   2.542550   3.327517   3.302736   4.292050   3.410508
     9  Br   2.586550   3.365581   4.701489   4.414589   3.343440
    10  Br   2.587410   4.701526   3.360905   5.356421   5.404820
    11  Cl   2.412659   3.181778   3.208373   3.250434   4.164758
                    6          7          8          9         10
     6  O    0.000000
     7  O    2.150537   0.000000
     8  Br   4.291919   3.352488   0.000000
     9  Br   5.392426   5.369401   3.657170   0.000000
    10  Br   3.341419   4.413948   3.613432   3.655236   0.000000
    11  Cl   3.298290   4.176555   4.955196   3.512557   3.557650
                   11
    11  Cl   0.000000
 Stoichiometry    Br3ClN2O4Pt(2-)
 Framework group  C1[X(Br3ClN2O4Pt)]
 Deg. of freedom    27
 Full point group                 C1      NOp   1
 Largest Abelian subgroup         C1      NOp   1
 Largest concise Abelian subgroup C1      NOp   1
                         Standard orientation:                         
 ---------------------------------------------------------------------
 Center     Atomic      Atomic             Coordinates (Angstroms)
 Number     Number       Type             X           Y           Z
 ---------------------------------------------------------------------
      1         78           0       -0.121195   -0.099507   -0.210597
      2          7           0       -2.125375    0.416246   -0.643339
      3          7           0       -0.699283   -2.134068   -0.218050
      4          8           0       -2.720575   -0.300586   -1.430583
      5          8           0       -2.616435    1.386532   -0.097613
      6          8           0        0.027722   -2.947515   -0.754269
      7          8           0       -1.770943   -2.409865    0.294801
      8         35           0       -0.595178    0.018612    2.284588
      9         35           0        0.568611    2.393171   -0.241665
     10         35           0        2.325137   -0.765197    0.306129
     11         17           0        0.318688   -0.216044   -2.579953
 ---------------------------------------------------------------------
 Rotational constants (GHZ):      0.3273144      0.3257879      0.3032052
 Basis read from rwf:  (5D, 7F)
 Pseudo-potential data read from rwf file.
 There are   238 symmetry adapted cartesian basis functions of A   symmetry.
 There are   220 symmetry adapted basis functions of A   symmetry.
   220 basis functions,   470 primitive gaussians,   238 cartesian basis functions
    94 alpha electrons       94 beta electrons
       nuclear repulsion energy      2359.0182064168 Hartrees.
 NAtoms=   11 NActive=   11 NUniq=   11 SFac= 1.00D+00 NAtFMM=   60 NAOKFM=F Big=F
 Integral buffers will be    131072 words long.
 Raffenetti 2 integral format.
 Two-electron integral symmetry is turned on.
 ------------------------------------------------------------------------------
 Polarizable Continuum Model (PCM)
 =================================
 Model                : PCM (using non-symmetric T matrix).
 Atomic radii         : UFF (Universal Force Field).
 Polarization charges : Total charges.
 Charge compensation  : None.
 Solution method      : On-the-fly selection.
 Cavity type          : Scaled VdW (van der Waals Surface) (Alpha=1.100).
 Cavity algorithm     : GePol (No added spheres)
                        Default sphere list used, NSphG=   11.
                        Lebedev-Laikov grids with approx.  5.0 points / Ang**2.
                        Smoothing algorithm: Karplus/York (Gamma=1.0000).
                        Polarization charges: spherical gaussians, with
                                              point-specific exponents (IZeta= 3).
                        Self-potential: point-specific (ISelfS= 7).
                        Self-field    : sphere-specific E.n sum rule (ISelfD= 2).
 1st derivatives      : Analytical E(r).r(x)/FMM algorithm (CHGder, D1EAlg=3).
                        Cavity 1st derivative terms included.
 Solvent              : Water, Eps=  78.355300 Eps(inf)=   1.777849
 ------------------------------------------------------------------------------
 Spheres list:
 ISph  on   Nord     Re0    Alpha      Xe            Ye            Ze
    1  Pt      1    1.3770  1.100     -0.121195     -0.099507     -0.210597
    2   N      2    1.8300  1.100     -2.125375      0.416246     -0.643339
    3   N      3    1.8300  1.100     -0.699283     -2.134068     -0.218050
    4   O      4    1.7500  1.100     -2.720575     -0.300586     -1.430583
    5   O      5    1.7500  1.100     -2.616435      1.386532     -0.097613
    6   O      6    1.7500  1.100      0.027722     -2.947515     -0.754269
    7   O      7    1.7500  1.100     -1.770943     -2.409865      0.294801
    8  Br      8    2.0945  1.100     -0.595178      0.018612      2.284588
    9  Br      9    2.0945  1.100      0.568611      2.393171     -0.241665
   10  Br     10    2.0945  1.100      2.325137     -0.765197      0.306129
   11  Cl     11    1.9735  1.100      0.318688     -0.216044     -2.579953
 ------------------------------------------------------------------------------
 One-electron integrals computed using PRISM.
   1 Symmetry operations used in ECPInt.
 ECPInt:  NShTT=    3916 NPrTT=   19538 LenC2=    3540 LenP2D=   11973.
 LDataN:  DoStor=T MaxTD1= 6 Len=  172
 NBasis=   220 RedAO= T EigKep=  4.96D-03  NBF=   220
 NBsUse=   220 1.00D-06 EigRej= -1.00D+00 NBFU=   220
 Defaulting to unpruned grid for atomic number  78.
 Initial guess from the checkpoint file:  "/scr/nqtcm/Gau-32097.chk"
 B after Tr=     0.000000    0.000000    0.000000
         Rot=    0.998295    0.003033    0.005872    0.057989 Ang=   6.69 deg.
 ExpMin= 2.90D-02 ExpMax= 1.13D+05 ExpMxC= 1.70D+04 IAcc=3 IRadAn=         5 AccDes= 0.00D+00
 Harris functional with IExCor=  402 and IRadAn=       5 diagonalized for initial guess.
 HarFok:  IExCor=  402 AccDes= 0.00D+00 IRadAn=         5 IDoV= 1 UseB2=F ITyADJ=14
 ICtDFT=  3500011 ScaDFX=  1.000000  1.000000  1.000000  1.000000
 Defaulting to unpruned grid for atomic number  78.
 Defaulting to unpruned grid for atomic number  78.
 Defaulting to unpruned grid for atomic number  78.
 Defaulting to unpruned grid for atomic number  78.
 FoFCou: FMM=F IPFlag=           0 FMFlag=      100000 FMFlg1=           0
         NFxFlg=           0 DoJE=T BraDBF=F KetDBF=T FulRan=T
         wScrn=  0.000000 ICntrl=     500 IOpCl=  0 I1Cent=   200000004 NGrid=           0
         NMat0=    1 NMatS0=      1 NMatT0=    0 NMatD0=    1 NMtDS0=    0 NMtDT0=    0
 Petite list used in FoFCou.
 Keep R1 ints in memory in canonical form, NReq=302517713.
 Requested convergence on RMS density matrix=1.00D-08 within 128 cycles.
 Requested convergence on MAX density matrix=1.00D-06.
 Requested convergence on             energy=1.00D-06.
 No special actions if energy rises.
 Defaulting to unpruned grid for atomic number  78.
 Defaulting to unpruned grid for atomic number  78.
 Defaulting to unpruned grid for atomic number  78.
 Defaulting to unpruned grid for atomic number  78.
 Inv3:  Mode=1 IEnd=     9082800.
 Iteration    1 A*A^-1 deviation from unit magnitude is 7.11D-15 for   1489.
 Iteration    1 A*A^-1 deviation from orthogonality  is 3.68D-15 for    679    415.
 Iteration    1 A^-1*A deviation from unit magnitude is 6.88D-15 for   1489.
 Iteration    1 A^-1*A deviation from orthogonality  is 9.72D-14 for    769    692.
 Error on total polarization charges =  0.01283
 SCF Done:  E(RB3LYP) =  -8711.21938705     A.U. after   12 cycles
            NFock= 12  Conv=0.78D-08     -V/T= 2.0110
   1 Symmetry operations used in ECPInt.
 ECPInt:  NShTT=    3916 NPrTT=   19538 LenC2=    3540 LenP2D=   11973.
 LDataN:  DoStor=T MaxTD1= 7 Len=  274
 D1PCM: PCM CHGder 1st derivatives, ID1Alg=3 FixD1E=F DoIter=F DoCFld=F I1PDM=0.
 Calling FoFJK, ICntrl=      2127 FMM=F ISym2X=0 I1Cent= 0 IOpClX= 0 NMat=1 NMatS=1 NMatT=0.
 Defaulting to unpruned grid for atomic number  78.
 Defaulting to unpruned grid for atomic number  78.
 Defaulting to unpruned grid for atomic number  78.
 Defaulting to unpruned grid for atomic number  78.
 ***** Axes restored to original set *****
 -------------------------------------------------------------------
 Center     Atomic                   Forces (Hartrees/Bohr)
 Number     Number              X              Y              Z
 -------------------------------------------------------------------
      1       78          -0.001360213   -0.001860072   -0.000578181
      2        7          -0.003338905    0.000153502   -0.000286200
      3        7          -0.001964599   -0.002630571   -0.000483985
      4        8           0.001506203    0.003788702    0.002823974
      5        8           0.001717578   -0.003527469   -0.002458117
      6        8          -0.002209929    0.001778307    0.001968748
      7        8           0.003871856    0.000993679   -0.001082174
      8       35          -0.001104215   -0.000421791    0.001782213
      9       35           0.000051419    0.003330391   -0.000227959
     10       35           0.003032413   -0.000818967    0.000831707
     11       17          -0.000201608   -0.000785712   -0.002290028
 -------------------------------------------------------------------
 Cartesian Forces:  Max     0.003871856 RMS     0.002024073

 GradGradGradGradGradGradGradGradGradGradGradGradGradGradGradGradGradGrad
 Berny optimization.
 Search for a local minimum.
 Step number   2 out of a maximum of   43
 All quantities printed in internal units (Hartrees-Bohrs-Radians)
 Update second derivatives using D2CorN and points    1    2
 DE= -1.16D-03 DEPred=-1.05D-03 R= 1.11D+00
 TightC=F SS=  1.41D+00  RLast= 2.17D-01 DXNew= 5.0454D-01 6.5224D-01
 Trust test= 1.11D+00 RLast= 2.17D-01 DXMaxT set to 5.05D-01
 ITU=  1  0
     Eigenvalues ---    0.00241   0.00565   0.01387   0.02036   0.02668
     Eigenvalues ---    0.03417   0.04262   0.04312   0.05052   0.07357
     Eigenvalues ---    0.07678   0.08448   0.08654   0.11270   0.13608
     Eigenvalues ---    0.15598   0.18710   0.27530   0.31462   0.35070
     Eigenvalues ---    0.65973   1.54196   1.55352   2.00981   2.50889
     Eigenvalues ---    5.31214  12.04798
 RFO step:  Lambda=-3.94294317D-04 EMin= 2.41272886D-03
 Quartic linear search produced a step of  0.27127.
 TrRot= -0.001590 -0.001820 -0.000751  0.633016 -0.000301 -0.633039
 Variable       Old X    -DE/DX   Delta X   Delta X   Delta X     New X
                                 (Linear)    (Quad)   (Total)
    X1       -0.20799  -0.00136  -0.00090  -0.00088  -0.00328  -0.21127
    Y1       -0.20809  -0.00186  -0.00019  -0.00110  -0.00303  -0.21112
    Z1       -0.39108  -0.00058   0.00100  -0.00302  -0.00286  -0.39393
    X2       -4.09270  -0.00334  -0.00281   0.00090  -0.00321  -4.09591
    Y2        0.32550   0.00015  -0.00252   0.01039   0.00636   0.33186
    Z2       -1.15719  -0.00029   0.00348  -0.00152   0.00027  -1.15691
    X3       -0.84655  -0.00196  -0.00059   0.00216  -0.00001  -0.84656
    Y3       -4.15357  -0.00263  -0.00181   0.00125  -0.00228  -4.15585
    Z3       -0.42545  -0.00048  -0.00306  -0.00089  -0.00565  -0.43110
    X4       -5.07079   0.00151  -0.00398  -0.00026  -0.00521  -5.07600
    Y4       -1.14002   0.00379  -0.02369   0.05719   0.03227  -1.10775
    Z4       -2.64341   0.00282   0.02363  -0.03463  -0.01318  -2.65658
    X5       -5.21456   0.00172   0.00736  -0.00622  -0.00038  -5.21495
    Y5        2.03137  -0.00353   0.01559  -0.01306   0.00085   2.03222
    Z5       -0.09979  -0.00246  -0.01380   0.01582   0.00037  -0.09942
    X6        0.68393  -0.00221   0.00927   0.00302   0.01092   0.69485
    Y6       -5.51338   0.00178  -0.00011   0.00067  -0.00101  -5.51439
    Z6       -1.46745   0.00197   0.00972   0.00787   0.01602  -1.45142
    X7       -2.78534   0.00387  -0.01492   0.03929   0.02253  -2.76281
    Y7       -4.91353   0.00099   0.00647  -0.01367  -0.00906  -4.92259
    Z7        0.56229  -0.00108  -0.02342   0.04460   0.01888   0.58117
    X8       -1.06531  -0.00110  -0.00468  -0.01670  -0.02402  -1.08934
    Y8       -0.12417  -0.00042  -0.00485  -0.01527  -0.02269  -0.14686
    Z8        4.33580   0.00178   0.01260  -0.00174   0.00982   4.34562
    X9        0.53880   0.00005   0.00025  -0.00318  -0.00431   0.53449
    Y9        4.62228   0.00333   0.01396   0.01374   0.02594   4.64822
    Z9       -0.42452  -0.00023   0.00399  -0.00613  -0.00193  -0.42646
   X10        4.54143   0.00303   0.01386   0.01096   0.02307   4.56450
   Y10       -0.92710  -0.00082  -0.00264  -0.00918  -0.01384  -0.94093
   Z10        0.52177   0.00083  -0.00004  -0.00003   0.00012   0.52189
   X11        0.58793  -0.00020  -0.00286  -0.01283  -0.01609   0.57183
   Y11       -0.29823  -0.00079  -0.00021  -0.01233  -0.01350  -0.31173
   Z11       -4.87943  -0.00229  -0.01410  -0.00710  -0.02187  -4.90129
         Item               Value     Threshold  Converged?
 Maximum Force            0.003872     0.002500     NO 
 RMS     Force            0.002024     0.001667     NO 
 Maximum Displacement     0.032270     0.010000     NO 
 RMS     Displacement     0.013717     0.006667     NO 
 Predicted change in Energy=-1.969083D-04
 GradGradGradGradGradGradGradGradGradGradGradGradGradGradGradGradGradGrad

                          Input orientation:                          
 ---------------------------------------------------------------------
 Center     Atomic      Atomic             Coordinates (Angstroms)
 Number     Number       Type             X           Y           Z
 ---------------------------------------------------------------------
      1         78           0       -0.111797   -0.111720   -0.208461
      2          7           0       -2.167464    0.175612   -0.612212
      3          7           0       -0.447979   -2.199182   -0.228126
      4          8           0       -2.686102   -0.586197   -1.405804
      5          8           0       -2.759631    1.075404   -0.052611
      6          8           0        0.367698   -2.918090   -0.768060
      7          8           0       -1.462018   -2.604922    0.307541
      8         35           0       -0.576453   -0.077716    2.299603
      9         35           0        0.282839    2.459732   -0.225671
     10         35           0        2.415429   -0.497921    0.276170
     11         17           0        0.302602   -0.164962   -2.593652
 ---------------------------------------------------------------------
                    Distance matrix (angstroms):
                    1          2          3          4          5
     1  Pt   0.000000
     2  N    2.114554   0.000000
     3  N    2.114451   2.956991   0.000000
     4  O    2.878507   1.216193   2.999640   0.000000
     5  O    2.905955   1.213854   4.012163   2.144168   0.000000
     6  O    2.901514   4.002790   1.213955   3.894887   5.122505
     7  O    2.881911   3.012469   1.216486   2.917051   3.918968
     8  Br   2.550970   3.327786   3.302506   4.294091   3.410112
     9  Br   2.601615   3.372033   4.715886   4.414183   3.347079
    10  Br   2.602094   4.716543   3.368637   5.372379   5.418921
    11  Cl   2.421507   3.184858   3.208915   3.243574   4.168053
                    6          7          8          9         10
     6  O    0.000000
     7  O    2.145426   0.000000
     8  Br   4.285989   3.337561   0.000000
     9  Br   5.405771   5.383267   3.681580   0.000000
    10  Br   3.337790   4.413053   3.636236   3.680692   0.000000
    11  Cl   3.304049   4.181412   4.972353   3.535073   3.579215
                   11
    11  Cl   0.000000
 Stoichiometry    Br3ClN2O4Pt(2-)
 Framework group  C1[X(Br3ClN2O4Pt)]
 Deg. of freedom    27
 Full point group                 C1      NOp   1
 Largest Abelian subgroup         C1      NOp   1
 Largest concise Abelian subgroup C1      NOp   1
                         Standard orientation:                         
 ---------------------------------------------------------------------
 Center     Atomic      Atomic             Coordinates (Angstroms)
 Number     Number       Type             X           Y           Z
 ---------------------------------------------------------------------
      1         78           0       -0.050730   -0.143673   -0.215415
      2          7           0       -2.025841   -0.755297   -0.658350
      3          7           0        0.541343   -2.172575   -0.277971
      4          8           0       -2.157873   -1.646048   -1.475821
      5          8           0       -2.953481   -0.210262   -0.096334
      6          8           0        1.593030   -2.458930   -0.812426
      7          8           0       -0.207004   -2.986862    0.228736
      8         35           0       -0.515398   -0.373980    2.282282
      9         35           0       -0.797180    2.348308   -0.180193
     10         35           0        2.391742    0.578779    0.316831
     11         17           0        0.375310    0.044687   -2.591695
 ---------------------------------------------------------------------
 Rotational constants (GHZ):      0.3256319      0.3232690      0.3009488
 Basis read from rwf:  (5D, 7F)
 Pseudo-potential data read from rwf file.
 There are   238 symmetry adapted cartesian basis functions of A   symmetry.
 There are   220 symmetry adapted basis functions of A   symmetry.
   220 basis functions,   470 primitive gaussians,   238 cartesian basis functions
    94 alpha electrons       94 beta electrons
       nuclear repulsion energy      2351.6371663116 Hartrees.
 NAtoms=   11 NActive=   11 NUniq=   11 SFac= 1.00D+00 NAtFMM=   60 NAOKFM=F Big=F
 Integral buffers will be    131072 words long.
 Raffenetti 2 integral format.
 Two-electron integral symmetry is turned on.
 ------------------------------------------------------------------------------
 Polarizable Continuum Model (PCM)
 =================================
 Model                : PCM (using non-symmetric T matrix).
 Atomic radii         : UFF (Universal Force Field).
 Polarization charges : Total charges.
 Charge compensation  : None.
 Solution method      : On-the-fly selection.
 Cavity type          : Scaled VdW (van der Waals Surface) (Alpha=1.100).
 Cavity algorithm     : GePol (No added spheres)
                        Default sphere list used, NSphG=   11.
                        Lebedev-Laikov grids with approx.  5.0 points / Ang**2.
                        Smoothing algorithm: Karplus/York (Gamma=1.0000).
                        Polarization charges: spherical gaussians, with
                                              point-specific exponents (IZeta= 3).
                        Self-potential: point-specific (ISelfS= 7).
                        Self-field    : sphere-specific E.n sum rule (ISelfD= 2).
 1st derivatives      : Analytical E(r).r(x)/FMM algorithm (CHGder, D1EAlg=3).
                        Cavity 1st derivative terms included.
 Solvent              : Water, Eps=  78.355300 Eps(inf)=   1.777849
 ------------------------------------------------------------------------------
 Spheres list:
 ISph  on   Nord     Re0    Alpha      Xe            Ye            Ze
    1  Pt      1    1.3770  1.100     -0.050730     -0.143673     -0.215415
    2   N      2    1.8300  1.100     -2.025841     -0.755297     -0.658350
    3   N      3    1.8300  1.100      0.541343     -2.172575     -0.277971
    4   O      4    1.7500  1.100     -2.157873     -1.646048     -1.475821
    5   O      5    1.7500  1.100     -2.953481     -0.210262     -0.096334
    6   O      6    1.7500  1.100      1.593030     -2.458930     -0.812426
    7   O      7    1.7500  1.100     -0.207004     -2.986862      0.228736
    8  Br      8    2.0945  1.100     -0.515398     -0.373980      2.282282
    9  Br      9    2.0945  1.100     -0.797180      2.348308     -0.180193
   10  Br     10    2.0945  1.100      2.391742      0.578779      0.316831
   11  Cl     11    1.9735  1.100      0.375310      0.044687     -2.591695
 ------------------------------------------------------------------------------
 One-electron integrals computed using PRISM.
   1 Symmetry operations used in ECPInt.
 ECPInt:  NShTT=    3916 NPrTT=   19538 LenC2=    3538 LenP2D=   11963.
 LDataN:  DoStor=T MaxTD1= 6 Len=  172
 NBasis=   220 RedAO= T EigKep=  4.97D-03  NBF=   220
 NBsUse=   220 1.00D-06 EigRej= -1.00D+00 NBFU=   220
 Defaulting to unpruned grid for atomic number  78.
 Initial guess from the checkpoint file:  "/scr/nqtcm/Gau-32097.chk"
 B after Tr=     0.000000    0.000000    0.000000
         Rot=    0.960968   -0.013171    0.002736   -0.276334 Ang= -32.12 deg.
 ExpMin= 2.90D-02 ExpMax= 1.13D+05 ExpMxC= 1.70D+04 IAcc=3 IRadAn=         5 AccDes= 0.00D+00
 Harris functional with IExCor=  402 and IRadAn=       5 diagonalized for initial guess.
 HarFok:  IExCor=  402 AccDes= 0.00D+00 IRadAn=         5 IDoV= 1 UseB2=F ITyADJ=14
 ICtDFT=  3500011 ScaDFX=  1.000000  1.000000  1.000000  1.000000
 Defaulting to unpruned grid for atomic number  78.
 Defaulting to unpruned grid for atomic number  78.
 Defaulting to unpruned grid for atomic number  78.
 Defaulting to unpruned grid for atomic number  78.
 FoFCou: FMM=F IPFlag=           0 FMFlag=      100000 FMFlg1=           0
         NFxFlg=           0 DoJE=T BraDBF=F KetDBF=T FulRan=T
         wScrn=  0.000000 ICntrl=     500 IOpCl=  0 I1Cent=   200000004 NGrid=           0
         NMat0=    1 NMatS0=      1 NMatT0=    0 NMatD0=    1 NMtDS0=    0 NMtDT0=    0
 Petite list used in FoFCou.
 Keep R1 ints in memory in canonical form, NReq=302517713.
 Requested convergence on RMS density matrix=1.00D-08 within 128 cycles.
 Requested convergence on MAX density matrix=1.00D-06.
 Requested convergence on             energy=1.00D-06.
 No special actions if energy rises.
 Defaulting to unpruned grid for atomic number  78.
 Defaulting to unpruned grid for atomic number  78.
 Defaulting to unpruned grid for atomic number  78.
 Defaulting to unpruned grid for atomic number  78.
 Inv3:  Mode=1 IEnd=     9166512.
 Iteration    1 A*A^-1 deviation from unit magnitude is 8.44D-15 for   1022.
 Iteration    1 A*A^-1 deviation from orthogonality  is 3.90D-15 for   1472   1064.
 Iteration    1 A^-1*A deviation from unit magnitude is 6.22D-15 for    428.
 Iteration    1 A^-1*A deviation from orthogonality  is 6.93D-15 for    663    658.
 Error on total polarization charges =  0.01281
 SCF Done:  E(RB3LYP) =  -8711.21956969     A.U. after   12 cycles
            NFock= 12  Conv=0.48D-08     -V/T= 2.0110
   1 Symmetry operations used in ECPInt.
 ECPInt:  NShTT=    3916 NPrTT=   19538 LenC2=    3538 LenP2D=   11963.
 LDataN:  DoStor=T MaxTD1= 7 Len=  274
 D1PCM: PCM CHGder 1st derivatives, ID1Alg=3 FixD1E=F DoIter=F DoCFld=F I1PDM=0.
 Calling FoFJK, ICntrl=      2127 FMM=F ISym2X=0 I1Cent= 0 IOpClX= 0 NMat=1 NMatS=1 NMatT=0.
 Defaulting to unpruned grid for atomic number  78.
 Defaulting to unpruned grid for atomic number  78.
 Defaulting to unpruned grid for atomic number  78.
 Defaulting to unpruned grid for atomic number  78.
 ***** Axes restored to original set *****
 -------------------------------------------------------------------
 Center     Atomic                   Forces (Hartrees/Bohr)
 Number     Number              X              Y              Z
 -------------------------------------------------------------------
      1       78          -0.000474343   -0.000799973   -0.001202740
      2        7          -0.001260988    0.001091307   -0.000075110
      3        7           0.001103829   -0.001635149    0.001425194
      4        8           0.000846581   -0.001079028   -0.000285938
      5        8           0.000686995   -0.000076936    0.000837380
      6        8          -0.000541757    0.000899799   -0.000536942
      7        8          -0.000859869    0.000618456   -0.000450973
      8       35          -0.000139648   -0.000072753    0.000096718
      9       35           0.000213392    0.001257854   -0.000082484
     10       35           0.000684350    0.000008340    0.000585258
     11       17          -0.000258541   -0.000211917   -0.000310362
 -------------------------------------------------------------------
 Cartesian Forces:  Max     0.001635149 RMS     0.000770041

 GradGradGradGradGradGradGradGradGradGradGradGradGradGradGradGradGradGrad
 Berny optimization.
 Search for a local minimum.
 Step number   3 out of a maximum of   43
 All quantities printed in internal units (Hartrees-Bohrs-Radians)
 Update second derivatives using D2CorN and points    1    2    3
 DE= -1.83D-04 DEPred=-1.97D-04 R= 9.28D-01
 TightC=F SS=  1.41D+00  RLast= 7.88D-02 DXNew= 8.4853D-01 2.3640D-01
 Trust test= 9.28D-01 RLast= 7.88D-02 DXMaxT set to 5.05D-01
 ITU=  1  1  0
     Eigenvalues ---    0.00219   0.00773   0.01708   0.02164   0.02684
     Eigenvalues ---    0.03397   0.03960   0.04321   0.05007   0.07149
     Eigenvalues ---    0.07415   0.07951   0.08575   0.10766   0.14129
     Eigenvalues ---    0.15326   0.18344   0.27513   0.31846   0.35068
     Eigenvalues ---    0.65742   1.54058   1.55189   2.00987   2.50884
     Eigenvalues ---    5.31068  12.04686
 RFO step:  Lambda=-1.39740989D-04 EMin= 2.18747767D-03
 Quartic linear search produced a step of -0.01309.
 TrRot=  0.000505  0.001277 -0.001770  1.281317  0.000694 -1.281196
 Variable       Old X    -DE/DX   Delta X   Delta X   Delta X     New X
                                 (Linear)    (Quad)   (Total)
    X1       -0.21127  -0.00047   0.00004   0.00162   0.00212  -0.20915
    Y1       -0.21112  -0.00080   0.00004  -0.00066   0.00037  -0.21075
    Z1       -0.39393  -0.00120   0.00004   0.00078  -0.00077  -0.39470
    X2       -4.09591  -0.00126   0.00004   0.00289   0.00317  -4.09274
    Y2        0.33186   0.00109  -0.00008   0.00234   0.00227   0.33413
    Z2       -1.15691  -0.00008   0.00000   0.00417   0.00299  -1.15392
    X3       -0.84656   0.00110   0.00000   0.00397   0.00490  -0.84166
    Y3       -4.15585  -0.00164   0.00003  -0.00254  -0.00161  -4.15746
    Z3       -0.43110   0.00143   0.00007   0.01203   0.01326  -0.41783
    X4       -5.07600   0.00085   0.00007   0.01421   0.01439  -5.06161
    Y4       -1.10775  -0.00108  -0.00042   0.01461   0.01308  -1.09468
    Z4       -2.65658  -0.00029   0.00017  -0.01391  -0.01377  -2.67036
    X5       -5.21495   0.00069   0.00001  -0.00186  -0.00160  -5.21655
    Y5        2.03222  -0.00008  -0.00001  -0.02966  -0.02906   2.00316
    Z5       -0.09942   0.00084   0.00000   0.04535   0.04327  -0.05615
    X6        0.69485  -0.00054  -0.00014   0.01415   0.01490   0.70975
    Y6       -5.51439   0.00090   0.00001  -0.00128  -0.00085  -5.51524
    Z6       -1.45142  -0.00054  -0.00021   0.02638   0.02793  -1.42349
    X7       -2.76281  -0.00086  -0.00029  -0.03768  -0.03677  -2.79959
    Y7       -4.92259   0.00062   0.00012   0.01044   0.01185  -4.91074
    Z7        0.58117  -0.00045  -0.00025  -0.05248  -0.05067   0.53049
    X8       -1.08934  -0.00014   0.00031  -0.00562  -0.00392  -1.09326
    Y8       -0.14686  -0.00007   0.00030  -0.00230   0.00204  -0.14483
    Z8        4.34562   0.00010  -0.00013   0.00304   0.00146   4.34708
    X9        0.53449   0.00021   0.00006   0.00321   0.00312   0.53761
    Y9        4.64822   0.00126  -0.00034   0.01356   0.01427   4.66249
    Z9       -0.42646  -0.00008   0.00003  -0.01132  -0.01627  -0.44273
   X10        4.56450   0.00068  -0.00030   0.01277   0.01319   4.57769
   Y10       -0.94093   0.00001   0.00018   0.00380   0.00617  -0.93477
   Z10        0.52189   0.00059   0.00000   0.00233   0.00028   0.52216
   X11        0.57183  -0.00026   0.00021  -0.01327  -0.01348   0.55835
   Y11       -0.31173  -0.00021   0.00018  -0.01678  -0.01852  -0.33025
   Z11       -4.90129  -0.00031   0.00029  -0.00633  -0.00770  -4.90900
         Item               Value     Threshold  Converged?
 Maximum Force            0.001635     0.002500     YES
 RMS     Force            0.000770     0.001667     YES
 Maximum Displacement     0.050673     0.010000     NO 
 RMS     Displacement     0.017302     0.006667     NO 
 Predicted change in Energy=-7.217657D-05
 GradGradGradGradGradGradGradGradGradGradGradGradGradGradGradGradGradGrad

                          Input orientation:                          
 ---------------------------------------------------------------------
 Center     Atomic      Atomic             Coordinates (Angstroms)
 Number     Number       Type             X           Y           Z
 ---------------------------------------------------------------------
      1         78           0       -0.110677   -0.111523   -0.208869
      2          7           0       -2.165787    0.176812   -0.610631
      3          7           0       -0.445389   -2.200034   -0.221107
      4          8           0       -2.678487   -0.579277   -1.413093
      5          8           0       -2.760480    1.060028   -0.029712
      6          8           0        0.375582   -2.918540   -0.753278
      7          8           0       -1.481477   -2.598651    0.280726
      8         35           0       -0.578526   -0.076638    2.300374
      9         35           0        0.284491    2.467284   -0.234282
     10         35           0        2.422408   -0.494658    0.276317
     11         17           0        0.295466   -0.174762   -2.597729
 ---------------------------------------------------------------------
                    Distance matrix (angstroms):
                    1          2          3          4          5
     1  Pt   0.000000
     2  N    2.113771   0.000000
     3  N    2.115198   2.959881   0.000000
     4  O    2.874474   1.215927   3.005730   0.000000
     5  O    2.902772   1.212929   4.003034   2.146576   0.000000
     6  O    2.900375   4.007507   1.213858   3.903184   5.117367
     7  O    2.881771   2.994327   1.218281   2.894776   3.888207
     8  Br   2.552724   3.325294   3.299152   4.295616   3.388544
     9  Br   2.609032   3.375169   4.724062   4.410258   3.360665
    10  Br   2.607435   4.721132   3.373425   5.374049   5.419690
    11  Cl   2.423965   3.182755   3.209194   3.226669   4.178304
                    6          7          8          9         10
     6  O    0.000000
     7  O    2.149456   0.000000
     8  Br   4.279197   3.354825   0.000000
     9  Br   5.411540   5.389580   3.693348   0.000000
    10  Br   3.335381   4.434763   3.643783   3.688428   0.000000
    11  Cl   3.307074   4.161522   4.976435   3.544913   3.589758
                   11
    11  Cl   0.000000
 Stoichiometry    Br3ClN2O4Pt(2-)
 Framework group  C1[X(Br3ClN2O4Pt)]
 Deg. of freedom    27
 Full point group                 C1      NOp   1
 Largest Abelian subgroup         C1      NOp   1
 Largest concise Abelian subgroup C1      NOp   1
                         Standard orientation:                         
 ---------------------------------------------------------------------
 Center     Atomic      Atomic             Coordinates (Angstroms)
 Number     Number       Type             X           Y           Z
 ---------------------------------------------------------------------
      1         78           0       -0.083094   -0.127918   -0.214803
      2          7           0       -2.146330   -0.241846   -0.659892
      3          7           0        0.001333   -2.240738   -0.268905
      4          8           0       -2.483731   -1.067426   -1.486365
      5          8           0       -2.915027    0.494766   -0.078767
      6          8           0        0.958335   -2.772333   -0.793313
      7          8           0       -0.945406   -2.845886    0.201937
      8         35           0       -0.598150   -0.237557    2.283015
      9         35           0       -0.204300    2.478169   -0.188934
     10         35           0        2.465681   -0.014477    0.323338
     11         17           0        0.374698   -0.060705   -2.594197
 ---------------------------------------------------------------------
 Rotational constants (GHZ):      0.3247513      0.3227613      0.3001073
 Basis read from rwf:  (5D, 7F)
 Pseudo-potential data read from rwf file.
 There are   238 symmetry adapted cartesian basis functions of A   symmetry.
 There are   220 symmetry adapted basis functions of A   symmetry.
   220 basis functions,   470 primitive gaussians,   238 cartesian basis functions
    94 alpha electrons       94 beta electrons
       nuclear repulsion energy      2348.9888430609 Hartrees.
 NAtoms=   11 NActive=   11 NUniq=   11 SFac= 1.00D+00 NAtFMM=   60 NAOKFM=F Big=F
 Integral buffers will be    131072 words long.
 Raffenetti 2 integral format.
 Two-electron integral symmetry is turned on.
 ------------------------------------------------------------------------------
 Polarizable Continuum Model (PCM)
 =================================
 Model                : PCM (using non-symmetric T matrix).
 Atomic radii         : UFF (Universal Force Field).
 Polarization charges : Total charges.
 Charge compensation  : None.
 Solution method      : On-the-fly selection.
 Cavity type          : Scaled VdW (van der Waals Surface) (Alpha=1.100).
 Cavity algorithm     : GePol (No added spheres)
                        Default sphere list used, NSphG=   11.
                        Lebedev-Laikov grids with approx.  5.0 points / Ang**2.
                        Smoothing algorithm: Karplus/York (Gamma=1.0000).
                        Polarization charges: spherical gaussians, with
                                              point-specific exponents (IZeta= 3).
                        Self-potential: point-specific (ISelfS= 7).
                        Self-field    : sphere-specific E.n sum rule (ISelfD= 2).
 1st derivatives      : Analytical E(r).r(x)/FMM algorithm (CHGder, D1EAlg=3).
                        Cavity 1st derivative terms included.
 Solvent              : Water, Eps=  78.355300 Eps(inf)=   1.777849
 ------------------------------------------------------------------------------
 Spheres list:
 ISph  on   Nord     Re0    Alpha      Xe            Ye            Ze
    1  Pt      1    1.3770  1.100     -0.083094     -0.127918     -0.214803
    2   N      2    1.8300  1.100     -2.146330     -0.241846     -0.659892
    3   N      3    1.8300  1.100      0.001333     -2.240738     -0.268905
    4   O      4    1.7500  1.100     -2.483731     -1.067426     -1.486365
    5   O      5    1.7500  1.100     -2.915027      0.494766     -0.078767
    6   O      6    1.7500  1.100      0.958335     -2.772333     -0.793313
    7   O      7    1.7500  1.100     -0.945406     -2.845886      0.201937
    8  Br      8    2.0945  1.100     -0.598150     -0.237557      2.283015
    9  Br      9    2.0945  1.100     -0.204300      2.478169     -0.188934
   10  Br     10    2.0945  1.100      2.465681     -0.014477      0.323338
   11  Cl     11    1.9735  1.100      0.374698     -0.060705     -2.594197
 ------------------------------------------------------------------------------
 One-electron integrals computed using PRISM.
   1 Symmetry operations used in ECPInt.
 ECPInt:  NShTT=    3916 NPrTT=   19538 LenC2=    3538 LenP2D=   11956.
 LDataN:  DoStor=T MaxTD1= 6 Len=  172
 NBasis=   220 RedAO= T EigKep=  4.98D-03  NBF=   220
 NBsUse=   220 1.00D-06 EigRej= -1.00D+00 NBFU=   220
 Defaulting to unpruned grid for atomic number  78.
 Initial guess from the checkpoint file:  "/scr/nqtcm/Gau-32097.chk"
 B after Tr=     0.000000    0.000000    0.000000
         Rot=    0.992535    0.000645    0.001132    0.121953 Ang=  14.01 deg.
 ExpMin= 2.90D-02 ExpMax= 1.13D+05 ExpMxC= 1.70D+04 IAcc=3 IRadAn=         5 AccDes= 0.00D+00
 Harris functional with IExCor=  402 and IRadAn=       5 diagonalized for initial guess.
 HarFok:  IExCor=  402 AccDes= 0.00D+00 IRadAn=         5 IDoV= 1 UseB2=F ITyADJ=14
 ICtDFT=  3500011 ScaDFX=  1.000000  1.000000  1.000000  1.000000
 Defaulting to unpruned grid for atomic number  78.
 Defaulting to unpruned grid for atomic number  78.
 Defaulting to unpruned grid for atomic number  78.
 Defaulting to unpruned grid for atomic number  78.
 FoFCou: FMM=F IPFlag=           0 FMFlag=      100000 FMFlg1=           0
         NFxFlg=           0 DoJE=T BraDBF=F KetDBF=T FulRan=T
         wScrn=  0.000000 ICntrl=     500 IOpCl=  0 I1Cent=   200000004 NGrid=           0
         NMat0=    1 NMatS0=      1 NMatT0=    0 NMatD0=    1 NMtDS0=    0 NMtDT0=    0
 Petite list used in FoFCou.
 Keep R1 ints in memory in canonical form, NReq=302517713.
 Requested convergence on RMS density matrix=1.00D-08 within 128 cycles.
 Requested convergence on MAX density matrix=1.00D-06.
 Requested convergence on             energy=1.00D-06.
 No special actions if energy rises.
 Defaulting to unpruned grid for atomic number  78.
 Defaulting to unpruned grid for atomic number  78.
 Defaulting to unpruned grid for atomic number  78.
 Defaulting to unpruned grid for atomic number  78.
 Inv3:  Mode=1 IEnd=     9303363.
 Iteration    1 A*A^-1 deviation from unit magnitude is 6.44D-15 for    324.
 Iteration    1 A*A^-1 deviation from orthogonality  is 3.23D-15 for   1555    655.
 Iteration    1 A^-1*A deviation from unit magnitude is 8.44D-15 for   1406.
 Iteration    1 A^-1*A deviation from orthogonality  is 2.93D-13 for   1374    686.
 Error on total polarization charges =  0.01286
 SCF Done:  E(RB3LYP) =  -8711.21961173     A.U. after   12 cycles
            NFock= 12  Conv=0.56D-08     -V/T= 2.0110
   1 Symmetry operations used in ECPInt.
 ECPInt:  NShTT=    3916 NPrTT=   19538 LenC2=    3538 LenP2D=   11956.
 LDataN:  DoStor=T MaxTD1= 7 Len=  274
 D1PCM: PCM CHGder 1st derivatives, ID1Alg=3 FixD1E=F DoIter=F DoCFld=F I1PDM=0.
 Calling FoFJK, ICntrl=      2127 FMM=F ISym2X=0 I1Cent= 0 IOpClX= 0 NMat=1 NMatS=1 NMatT=0.
 Defaulting to unpruned grid for atomic number  78.
 Defaulting to unpruned grid for atomic number  78.
 Defaulting to unpruned grid for atomic number  78.
 Defaulting to unpruned grid for atomic number  78.
 ***** Axes restored to original set *****
 -------------------------------------------------------------------
 Center     Atomic                   Forces (Hartrees/Bohr)
 Number     Number              X              Y              Z
 -------------------------------------------------------------------
      1       78           0.000697731   -0.000183024   -0.000594466
      2        7           0.000268853   -0.001089682    0.000472654
      3        7          -0.002079607   -0.000794685   -0.001031263
      4        8          -0.000134176    0.000157924   -0.000480957
      5        8          -0.000232093    0.000816258    0.000008528
      6        8          -0.000854073    0.000792303    0.001384540
      7        8           0.002627853    0.000519680   -0.000328989
      8       35          -0.000018883   -0.000512670   -0.000004193
      9       35          -0.000282910    0.000614781    0.000168337
     10       35           0.000367263   -0.000177160    0.000603386
     11       17          -0.000359959   -0.000143725   -0.000197577
 -------------------------------------------------------------------
 Cartesian Forces:  Max     0.002627853 RMS     0.000805253

 GradGradGradGradGradGradGradGradGradGradGradGradGradGradGradGradGradGrad
 Berny optimization.
 Search for a local minimum.
 Step number   4 out of a maximum of   43
 All quantities printed in internal units (Hartrees-Bohrs-Radians)
 Update second derivatives using D2CorN and points    1    2    3    4
 DE= -4.20D-05 DEPred=-7.22D-05 R= 5.82D-01
 TightC=F SS=  1.41D+00  RLast= 9.94D-02 DXNew= 8.4853D-01 2.9817D-01
 Trust test= 5.82D-01 RLast= 9.94D-02 DXMaxT set to 5.05D-01
 ITU=  1  1  1  0
     Eigenvalues ---    0.00197   0.00998   0.01711   0.02422   0.02689
     Eigenvalues ---    0.03312   0.03757   0.04329   0.04971   0.07005
     Eigenvalues ---    0.07424   0.07977   0.08568   0.10659   0.14173
     Eigenvalues ---    0.15454   0.18271   0.27511   0.31994   0.35080
     Eigenvalues ---    0.65687   1.54066   1.55119   2.00949   2.50883
     Eigenvalues ---    5.31047  12.04635
 RFO step:  Lambda=-7.78660337D-05 EMin= 1.97126894D-03
 Quartic linear search produced a step of -0.29335.
 TrRot= -0.000012 -0.001556 -0.002227 -0.367423  0.000896  0.367558
 Variable       Old X    -DE/DX   Delta X   Delta X   Delta X     New X
                                 (Linear)    (Quad)   (Total)
    X1       -0.20915   0.00070  -0.00062  -0.00371  -0.00465  -0.21380
    Y1       -0.21075  -0.00018  -0.00011  -0.00187  -0.00344  -0.21419
    Z1       -0.39470  -0.00059   0.00023  -0.00275  -0.00464  -0.39934
    X2       -4.09274   0.00027  -0.00093  -0.00170  -0.00365  -4.09639
    Y2        0.33413  -0.00109  -0.00067   0.00414   0.00174   0.33587
    Z2       -1.15392   0.00047  -0.00088   0.00265   0.00309  -1.15084
    X3       -0.84166  -0.00208  -0.00144  -0.00358  -0.00482  -0.84648
    Y3       -4.15746  -0.00079   0.00047   0.00245   0.00139  -4.15608
    Z3       -0.41783  -0.00103  -0.00389   0.00094  -0.00581  -0.42364
    X4       -5.06161  -0.00013  -0.00422   0.01300   0.00665  -5.05496
    Y4       -1.09468   0.00016  -0.00384   0.04260   0.03740  -1.05728
    Z4       -2.67036  -0.00048   0.00404  -0.04096  -0.03526  -2.70561
    X5       -5.21655  -0.00023   0.00047  -0.00011   0.00005  -5.21650
    Y5        2.00316   0.00082   0.00852  -0.01373  -0.00746   1.99571
    Z5       -0.05615   0.00001  -0.01269   0.03155   0.02163  -0.03452
    X6        0.70975  -0.00085  -0.00437   0.04449   0.03972   0.74947
    Y6       -5.51524   0.00079   0.00025  -0.00439  -0.00517  -5.52041
    Z6       -1.42349   0.00138  -0.00819   0.08330   0.07047  -1.35302
    X7       -2.79959   0.00263   0.01079  -0.02212  -0.01026  -2.80984
    Y7       -4.91074   0.00052  -0.00348   0.01010   0.00452  -4.90622
    Z7        0.53049  -0.00033   0.01486  -0.03550  -0.02209   0.50841
    X8       -1.09326  -0.00002   0.00115  -0.00096   0.00384  -1.08942
    Y8       -0.14483  -0.00051  -0.00060  -0.02508  -0.02878  -0.17360
    Z8        4.34708   0.00000  -0.00043   0.00172  -0.00008   4.34700
    X9        0.53761  -0.00028  -0.00092   0.00140  -0.00053   0.53708
    Y9        4.66249   0.00061  -0.00419   0.01692   0.01139   4.67389
    Z9       -0.44273   0.00017   0.00477  -0.00820  -0.00460  -0.44733
   X10        4.57769   0.00037  -0.00387   0.01218   0.00886   4.58654
   Y10       -0.93477  -0.00018  -0.00181  -0.00021  -0.00313  -0.93790
   Z10        0.52216   0.00060  -0.00008  -0.00174  -0.00819   0.51398
   X11        0.55835  -0.00036   0.00396  -0.03508  -0.03521   0.52314
   Y11       -0.33025  -0.00014   0.00543  -0.01401  -0.00848  -0.33873
   Z11       -4.90900  -0.00020   0.00226  -0.01402  -0.01453  -4.92353
         Item               Value     Threshold  Converged?
 Maximum Force            0.002628     0.002500     NO 
 RMS     Force            0.000805     0.001667     YES
 Maximum Displacement     0.070471     0.010000     NO 
 RMS     Displacement     0.020004     0.006667     NO 
 Predicted change in Energy=-6.214528D-05
 GradGradGradGradGradGradGradGradGradGradGradGradGradGradGradGradGradGrad

                          Input orientation:                          
 ---------------------------------------------------------------------
 Center     Atomic      Atomic             Coordinates (Angstroms)
 Number     Number       Type             X           Y           Z
 ---------------------------------------------------------------------
      1         78           0       -0.113137   -0.113344   -0.211323
      2          7           0       -2.167718    0.177733   -0.608997
      3          7           0       -0.447940   -2.199300   -0.224182
[...]
 Defaulting to unpruned grid for atomic number  78.
 Inv3:  Mode=1 IEnd=     9198003.
 Iteration    1 A*A^-1 deviation from unit magnitude is 6.22D-15 for    714.
 Iteration    1 A*A^-1 deviation from orthogonality  is 4.00D-15 for   1061    718.
 Iteration    1 A^-1*A deviation from unit magnitude is 6.11D-15 for   1635.
 Iteration    1 A^-1*A deviation from orthogonality  is 2.00D-13 for    517    516.
 Error on total polarization charges =  0.01284
 SCF Done:  E(RB3LYP) =  -8711.21965129     A.U. after    8 cycles
            NFock=  8  Conv=0.42D-08     -V/T= 2.0110
   1 Symmetry operations used in ECPInt.
 ECPInt:  NShTT=    3916 NPrTT=   19538 LenC2=    3538 LenP2D=   11957.
 LDataN:  DoStor=T MaxTD1= 7 Len=  274
 D1PCM: PCM CHGder 1st derivatives, ID1Alg=3 FixD1E=F DoIter=F DoCFld=F I1PDM=0.
 Calling FoFJK, ICntrl=      2127 FMM=F ISym2X=0 I1Cent= 0 IOpClX= 0 NMat=1 NMatS=1 NMatT=0.
 Defaulting to unpruned grid for atomic number  78.
 Defaulting to unpruned grid for atomic number  78.
 Defaulting to unpruned grid for atomic number  78.
 Defaulting to unpruned grid for atomic number  78.
 ***** Axes restored to original set *****
 -------------------------------------------------------------------
 Center     Atomic                   Forces (Hartrees/Bohr)
 Number     Number              X              Y              Z
 -------------------------------------------------------------------
      1       78           0.000242664    0.000002434   -0.001130263
      2        7           0.000241614   -0.000461617    0.000755253
      3        7           0.000351120    0.000644514    0.000225455
      4        8          -0.000364665    0.000143833   -0.000396678
      5        8           0.000458233    0.000166665    0.000050573
      6        8           0.000317684   -0.000229382    0.000125470
      7        8          -0.000564351    0.000051406    0.000425338
      8       35          -0.000450069   -0.000326537   -0.000151285
      9       35          -0.000493330   -0.000020052   -0.000170122
     10       35           0.000189636   -0.000174469    0.000373891
     11       17           0.000071465    0.000203204   -0.000107630
 -------------------------------------------------------------------
 Cartesian Forces:  Max     0.001130263 RMS     0.000383738

 GradGradGradGradGradGradGradGradGradGradGradGradGradGradGradGradGradGrad
 Berny optimization.
 Search for a local minimum.
 Step number  12 out of a maximum of   43
 All quantities printed in internal units (Hartrees-Bohrs-Radians)
 Update second derivatives using D2CorN and points    1    2    3    5    6
                                                          7    9   11    8
 ITU=  0  0  0 -1  1  0  0 -1  1  1  1  0
 Energy rises -- skip Quadratic search.
 Quartic linear search produced a step of -0.95588.
 TrRot=  0.000000  0.000000  0.000000  0.000000  0.000000  0.000000
 Variable       Old X    -DE/DX   Delta X   Delta X   Delta X     New X
                                 (Linear)    (Quad)   (Total)
    X1       -0.20756   0.00024  -0.00098   0.00000  -0.00098  -0.20854
    Y1       -0.20465   0.00000  -0.00028   0.00000  -0.00028  -0.20493
    Z1       -0.38874  -0.00113   0.00235   0.00000   0.00235  -0.38639
    X2       -4.09239   0.00024   0.00102   0.00000   0.00102  -4.09138
    Y2        0.32078  -0.00046   0.00132   0.00000   0.00132   0.32210
    Z2       -1.16679   0.00076  -0.00067   0.00000  -0.00067  -1.16746
    X3       -0.85525   0.00035   0.00046   0.00000   0.00046  -0.85479
    Y3       -4.15336   0.00064   0.00146   0.00000   0.00146  -4.15190
    Z3       -0.42506   0.00023  -0.00050   0.00000  -0.00050  -0.42556
    X4       -5.04494  -0.00036  -0.00026   0.00000  -0.00026  -5.04520
    Y4       -1.14430   0.00014  -0.00099   0.00000  -0.00099  -1.14530
    Z4       -2.65926  -0.00040  -0.00034   0.00000  -0.00034  -2.65960
    X5       -5.23245   0.00046  -0.00074   0.00000  -0.00074  -5.23319
    Y5        2.00739   0.00017  -0.00001   0.00000  -0.00001   2.00737
    Z5       -0.11182   0.00005   0.00027   0.00000   0.00027  -0.11156
    X6        0.64978   0.00032   0.00068   0.00000   0.00068   0.65046
    Y6       -5.50486  -0.00023  -0.00125   0.00000  -0.00125  -5.50611
    Z6       -1.50253   0.00013  -0.00071   0.00000  -0.00071  -1.50324
    X7       -2.75776  -0.00056  -0.00110   0.00000  -0.00110  -2.75886
    Y7       -4.91299   0.00005  -0.00109   0.00000  -0.00109  -4.91408
    Z7        0.61520   0.00043   0.00043   0.00000   0.00043   0.61562
    X8       -1.07953  -0.00045   0.00041   0.00000   0.00041  -1.07912
    Y8       -0.12571  -0.00033   0.00026   0.00000   0.00026  -0.12545
    Z8        4.35223  -0.00015   0.00032   0.00000   0.00032   4.35255
    X9        0.54904  -0.00049   0.00037   0.00000   0.00037   0.54941
    Y9        4.67257  -0.00002   0.00065   0.00000   0.00065   4.67322
    Z9       -0.41822  -0.00017  -0.00037   0.00000  -0.00037  -0.41859
   X10        4.57306   0.00019  -0.00018   0.00000  -0.00018   4.57287
   Y10       -0.95940  -0.00017   0.00002   0.00000   0.00002  -0.95938
   Z10        0.53710   0.00037  -0.00060   0.00000  -0.00060   0.53650
   X11        0.56683   0.00007   0.00034   0.00000   0.00034   0.56717
   Y11       -0.29440   0.00020  -0.00008   0.00000  -0.00008  -0.29448
   Z11       -4.90056  -0.00011  -0.00017   0.00000  -0.00017  -4.90072
         Item               Value     Threshold  Converged?
 Maximum Force            0.001130     0.002500     YES
 RMS     Force            0.000384     0.001667     YES
 Maximum Displacement     0.002349     0.010000     YES
 RMS     Displacement     0.000794     0.006667     YES
 Predicted change in Energy=-6.528552D-05
 Optimization completed.
    -- Stationary point found.
 GradGradGradGradGradGradGradGradGradGradGradGradGradGradGradGradGradGrad

                          Input orientation:                          
 ---------------------------------------------------------------------
 Center     Atomic      Atomic             Coordinates (Angstroms)
 Number     Number       Type             X           Y           Z
 ---------------------------------------------------------------------
      1         78           0       -0.109835   -0.108295   -0.205710
      2          7           0       -2.165600    0.169749   -0.617441
      3          7           0       -0.452578   -2.197862   -0.224930
      4          8           0       -2.669667   -0.605539   -1.407222
      5          8           0       -2.768892    1.062263   -0.059174
      6          8           0        0.343849   -2.913047   -0.795103
      7          8           0       -1.459344   -2.599843    0.325547
      8         35           0       -0.571260   -0.066521    2.303100
      9         35           0        0.290541    2.472615   -0.221310
     10         35           0        2.419957   -0.507693    0.284223
     11         17           0        0.299954   -0.155788   -2.593263
 ---------------------------------------------------------------------
                    Distance matrix (angstroms):
                    1          2          3          4          5
     1  Pt   0.000000
     2  N    2.114946   0.000000
     3  N    2.117576   2.948574   0.000000
     4  O    2.871171   1.216104   2.974692   0.000000
     5  O    2.908997   1.213345   4.002649   2.146775   0.000000
     6  O    2.901696   3.979010   1.212799   3.844549   5.102336
     7  O    2.882919   3.009762   1.215809   2.905963   3.908190
     8  Br   2.551233   3.335761   3.308721   4.296550   3.418198
     9  Br   2.611828   3.390094   4.729228   4.432184   3.372760
    10  Br   2.607566   4.722208   3.371552   5.364218   5.432019
    11  Cl   2.422931   3.176287   3.216422   3.229182   4.162099
                    6          7          8          9         10
     6  O    0.000000
     7  O    2.146033   0.000000
     8  Br   4.305693   3.334236   0.000000
     9  Br   5.416404   5.393606   3.682739   0.000000
    10  Br   3.355726   4.407695   3.635640   3.697596   0.000000
    11  Cl   3.292079   4.193804   4.974069   3.540445   3.591403
                   11
    11  Cl   0.000000
 Stoichiometry    Br3ClN2O4Pt(2-)
 Framework group  C1[X(Br3ClN2O4Pt)]
 Deg. of freedom    27
 Full point group                 C1      NOp   1
 Largest Abelian subgroup         C1      NOp   1
 Largest concise Abelian subgroup C1      NOp   1
                         Standard orientation:                         
 ---------------------------------------------------------------------
 Center     Atomic      Atomic             Coordinates (Angstroms)
 Number     Number       Type             X           Y           Z
 ---------------------------------------------------------------------
      1         78           0        0.001196   -0.157100   -0.211733
      2          7           0       -1.633136   -1.432321   -0.630981
      3          7           0        1.257445   -1.861586   -0.238092
      4          8           0       -1.429586   -2.330728   -1.424921
      5          8           0       -2.693735   -1.243507   -0.072693
      6          8           0        2.326009   -1.788271   -0.807018
      7          8           0        0.841607   -2.865535    0.307212
      8         35           0       -0.353062   -0.470250    2.295302
      9         35           0       -1.566452    1.931938   -0.218607
     10         35           0        2.053363    1.372274    0.287293
     11         17           0        0.323383    0.114517   -2.597737
 ---------------------------------------------------------------------
 Rotational constants (GHZ):      0.3243741      0.3225723      0.3002282

 **********************************************************************

            Population analysis using the SCF density.

 **********************************************************************

 Orbital symmetries:
       Occupied  (A) (A) (A) (A) (A) (A) (A) (A) (A) (A) (A) (A)
                 (A) (A) (A) (A) (A) (A) (A) (A) (A) (A) (A) (A)
                 (A) (A) (A) (A) (A) (A) (A) (A) (A) (A) (A) (A)
                 (A) (A) (A) (A) (A) (A) (A) (A) (A) (A) (A) (A)
                 (A) (A) (A) (A) (A) (A) (A) (A) (A) (A) (A) (A)
                 (A) (A) (A) (A) (A) (A) (A) (A) (A) (A) (A) (A)
                 (A) (A) (A) (A) (A) (A) (A) (A) (A) (A) (A) (A)
                 (A) (A) (A) (A) (A) (A) (A) (A) (A) (A)
       Virtual   (A) (A) (A) (A) (A) (A) (A) (A) (A) (A) (A) (A)
                 (A) (A) (A) (A) (A) (A) (A) (A) (A) (A) (A) (A)
                 (A) (A) (A) (A) (A) (A) (A) (A) (A) (A) (A) (A)
                 (A) (A) (A) (A) (A) (A) (A) (A) (A) (A) (A) (A)
                 (A) (A) (A) (A) (A) (A) (A) (A) (A) (A) (A) (A)
                 (A) (A) (A) (A) (A) (A) (A) (A) (A) (A) (A) (A)
                 (A) (A) (A) (A) (A) (A) (A) (A) (A) (A) (A) (A)
                 (A) (A) (A) (A) (A) (A) (A) (A) (A) (A) (A) (A)
                 (A) (A) (A) (A) (A) (A) (A) (A) (A) (A) (A) (A)
                 (A) (A) (A) (A) (A) (A) (A) (A) (A) (A) (A) (A)
                 (A) (A) (A) (A) (A) (A)
 The electronic state is 1-A.
 Alpha  occ. eigenvalues -- -482.75033-482.73458-482.73451-101.45141 -62.43146
 Alpha  occ. eigenvalues --  -62.41571 -62.41563 -56.26346 -56.26047 -56.26046
 Alpha  occ. eigenvalues --  -56.24737 -56.24729 -56.24492 -56.24487 -56.24484
 Alpha  occ. eigenvalues --  -56.24480 -19.16217 -19.16211 -19.16100 -19.16098
 Alpha  occ. eigenvalues --  -14.53268 -14.53267  -9.40320  -8.64861  -8.63275
 Alpha  occ. eigenvalues --   -8.63266  -7.17125  -7.16303  -7.16302  -6.48045
 Alpha  occ. eigenvalues --   -6.46994  -6.46991  -6.46341  -6.46331  -6.45478
 Alpha  occ. eigenvalues --   -6.45468  -6.45462  -6.45454  -4.01104  -2.59486
 Alpha  occ. eigenvalues --   -2.59197  -2.59195  -2.58370  -2.58369  -2.57806
 Alpha  occ. eigenvalues --   -2.57797  -2.57572  -2.57561  -2.57559  -2.57550
 Alpha  occ. eigenvalues --   -2.56882  -2.56881  -2.56874  -2.56873  -2.22176
 Alpha  occ. eigenvalues --   -2.22142  -2.22110  -1.20785  -1.20516  -1.03890
 Alpha  occ. eigenvalues --   -1.03616  -0.75356  -0.72307  -0.70825  -0.70324
 Alpha  occ. eigenvalues --   -0.63379  -0.62794  -0.54046  -0.53036  -0.52081
 Alpha  occ. eigenvalues --   -0.51110  -0.50348  -0.50130  -0.39518  -0.36916
 Alpha  occ. eigenvalues --   -0.36709  -0.35579  -0.35463  -0.33977  -0.31765
 Alpha  occ. eigenvalues --   -0.31125  -0.30617  -0.29009  -0.28841  -0.27367
 Alpha  occ. eigenvalues --   -0.27164  -0.25451  -0.25378  -0.25044  -0.24823
 Alpha  occ. eigenvalues --   -0.24540  -0.23988  -0.23868  -0.23636
 Alpha virt. eigenvalues --   -0.11213  -0.09763  -0.04886  -0.04636   0.05458
 Alpha virt. eigenvalues --    0.05647   0.06303   0.08373   0.21470   0.21898
 Alpha virt. eigenvalues --    0.23039   0.28795   0.31647   0.35452   0.35931
 Alpha virt. eigenvalues --    0.36392   0.39443   0.40773   0.41603   0.44065
 Alpha virt. eigenvalues --    0.44422   0.45975   0.47937   0.55068   0.55698
 Alpha virt. eigenvalues --    0.56002   0.56425   0.57133   0.57325   0.57715
 Alpha virt. eigenvalues --    0.57776   0.59002   0.59239   0.61394   0.61738
 Alpha virt. eigenvalues --    0.62002   0.65170   0.65912   0.66706   0.69564
 Alpha virt. eigenvalues --    0.69908   0.71812   0.72906   0.78019   0.78652
 Alpha virt. eigenvalues --    0.80321   0.80894   0.82801   0.84560   0.87420
 Alpha virt. eigenvalues --    0.88546   0.89729   0.90626   0.90948   0.92033
 Alpha virt. eigenvalues --    0.92783   0.93339   0.94372   0.96154   0.97617
 Alpha virt. eigenvalues --    0.99814   1.01138   1.02663   1.03727   1.06106
 Alpha virt. eigenvalues --    1.06506   1.08640   1.09012   1.12442   1.13546
 Alpha virt. eigenvalues --    1.14066   1.15749   1.20896   1.26808   1.28197
 Alpha virt. eigenvalues --    1.34776   1.37837   1.38523   1.42659   1.44218
 Alpha virt. eigenvalues --    1.80962   1.83926   1.94220   1.95156   2.02237
 Alpha virt. eigenvalues --    2.02893   2.38696   2.40348   2.41937   2.42648
 Alpha virt. eigenvalues --    2.60805   2.61312   2.62990   2.63094   2.64413
 Alpha virt. eigenvalues --    2.65484   2.71262   2.71299   3.00487   3.01410
 Alpha virt. eigenvalues --    3.05645   3.05745   3.30299   3.30849   3.34844
 Alpha virt. eigenvalues --    3.39413   3.44668   3.45428   3.45627   3.45837
 Alpha virt. eigenvalues --    3.46203   3.46993   3.47450   3.51780   3.52259
 Alpha virt. eigenvalues --    3.55972   3.60063   3.61914   3.66890   3.71293
 Alpha virt. eigenvalues --    3.72595   3.74450   3.76272   3.78637   3.79106
 Alpha virt. eigenvalues --    8.90644
          Condensed to atoms (all electrons):
               1          2          3          4          5          6
     1  Pt  17.182960   0.118514   0.120368  -0.025838  -0.026122  -0.022072
     2  N    0.118514   6.214213  -0.011278   0.267732   0.291278  -0.000035
     3  N    0.120368  -0.011278   6.210057  -0.000663   0.000003   0.285550
     4  O   -0.025838   0.267732  -0.000663   8.114696  -0.099929  -0.000077
     5  O   -0.026122   0.291278   0.000003  -0.099929   8.086248   0.000000
     6  O   -0.022072  -0.000035   0.285550  -0.000077   0.000000   8.086644
     7  O   -0.031309  -0.000382   0.274867  -0.000293  -0.000053  -0.099985
     8  Br   0.233263  -0.011396  -0.013557  -0.000037   0.000826  -0.000118
     9  Br   0.242707  -0.008703  -0.001813   0.000001   0.000098   0.000053
    10  Br   0.242937  -0.001850  -0.009059   0.000064   0.000050  -0.000203
    11  Cl   0.254425  -0.011437  -0.009777  -0.000365  -0.000089   0.000004
               7          8          9         10         11
     1  Pt  -0.031309   0.233263   0.242707   0.242937   0.254425
     2  N   -0.000382  -0.011396  -0.008703  -0.001850  -0.011437
     3  N    0.274867  -0.013557  -0.001813  -0.009059  -0.009777
     4  O   -0.000293  -0.000037   0.000001   0.000064  -0.000365
     5  O   -0.000053   0.000826   0.000098   0.000050  -0.000089
     6  O   -0.099985  -0.000118   0.000053  -0.000203   0.000004
     7  O    8.112443   0.000627   0.000058   0.000002  -0.000040
     8  Br   0.000627  35.013148  -0.012605  -0.015970  -0.001254
     9  Br   0.000058  -0.012605  35.083034  -0.010795  -0.012837
    10  Br   0.000002  -0.015970  -0.010795  35.083389  -0.010273
    11  Cl  -0.000040  -0.001254  -0.012837  -0.010273  17.046746
 Mulliken charges:
               1
     1  Pt  -0.289833
     2  N    0.153344
     3  N    0.155302
     4  O   -0.255291
     5  O   -0.252310
     6  O   -0.249760
     7  O   -0.255936
     8  Br  -0.192926
     9  Br  -0.279198
    10  Br  -0.278292
    11  Cl  -0.255101
 Sum of Mulliken charges =  -2.00000
 Mulliken charges with hydrogens summed into heavy atoms:
               1
     1  Pt  -0.289833
     2  N    0.153344
     3  N    0.155302
     4  O   -0.255291
     5  O   -0.252310
     6  O   -0.249760
     7  O   -0.255936
     8  Br  -0.192926
     9  Br  -0.279198
    10  Br  -0.278292
    11  Cl  -0.255101
 Electronic spatial extent (au):  <R**2>=           4324.3669
 Charge=             -2.0000 electrons
 Dipole moment (field-independent basis, Debye):
    X=             -0.1528    Y=              0.5822    Z=              2.0455  Tot=              2.1322
 Quadrupole moment (field-independent basis, Debye-Ang):
   XX=           -158.7497   YY=           -158.8277   ZZ=           -151.5865
   XY=             -0.2036   XZ=              2.0462   YZ=             -1.5381
 Traceless Quadrupole moment (field-independent basis, Debye-Ang):
   XX=             -2.3617   YY=             -2.4397   ZZ=              4.8014
   XY=             -0.2036   XZ=              2.0462   YZ=             -1.5381
 Octapole moment (field-independent basis, Debye-Ang**2):
  XXX=              3.2669  YYY=             60.9427  ZZZ=             46.5829  XYY=              1.2692
  XXY=             19.5140  XXZ=             16.8812  XZZ=             -0.9996  YZZ=             17.0619
  YYZ=             18.0891  XYZ=             -0.5641
 Hexadecapole moment (field-independent basis, Debye-Ang**3):
 XXXX=          -1740.0417 YYYY=          -1771.3828 ZZZZ=          -1487.2400 XXXY=            -11.1461
 XXXZ=             21.3133 YYYX=             14.0515 YYYZ=            -25.7157 ZZZX=              7.1747
 ZZZY=            -19.2365 XXYY=           -599.0885 XXZZ=           -514.9132 YYZZ=           -530.1683
 XXYZ=            -21.7346 YYXZ=            -12.1513 ZZXY=             -5.8036
 N-N= 2.348523565576D+03 E-N=-2.551752829480D+04  KE= 8.616601219783D+03
 1\1\GINC-NQTCM01\FOpt\RB3LYP\Gen\Br3Cl1N2O4Pt1(2-)\NQTCM\10-May-2022\0
 \\#b3lyp/gen pseudo=read opt=(loose,cartesian) scrf=(solvent=water)\\E
 strutura 47\\-2,1\Pt,-0.1098351935,-0.1082954472,-0.2057102141\N,-2.16
 55996867,0.1697486529,-0.6174411379\N,-0.4525778709,-2.1978616234,-0.2
 249301145\O,-2.6696669885,-0.6055390741,-1.4072221924\O,-2.7688916774,
 1.0622627439,-0.0591737879\O,0.3438486834,-2.9130465361,-0.7951030423\
 O,-1.4593437798,-2.5998434138,0.3255473283\Br,-0.5712604871,-0.0665211
 736,2.3031003377\Br,0.2905405855,2.4726153646,-0.2213101864\Br,2.41995
 67005,-0.5076926798,0.2842233111\Cl,0.2999537143,-0.1557878133,-2.5932
 633015\\Version=EM64L-G09RevD.01\State=1-A\HF=-8711.2196513\RMSD=4.153
 e-09\RMSF=3.837e-04\Dipole=0.1252158,0.2052105,0.8036908\Quadrupole=-1
 .9348493,-1.6432104,3.5780597,-0.0321646,0.2662131,-1.8730159\PG=C01 [
 X(Br3Cl1N2O4Pt1)]\\@


 ASKING FOR EFFICIENCY AND ADAPTABILITY IN THE SAME PROGRAM IS LIKE
 ASKING FOR A BEAUTIFUL AND MODEST WIFE ...
 WE'LL PROBABLY HAVE TO SETTLE FOR ONE OR THE OTHER.

             -- THE PSYCHOLOGY OF COMPUTER PROGRAMMING
                GERALD M. WEINBERG
 Job cpu time:       0 days  0 hours 20 minutes 13.7 seconds.
 File lengths (MBytes):  RWF=    127 Int=      0 D2E=      0 Chk=      6 Scr=      1
 Normal termination of Gaussian 09 at Tue May 10 10:51:30 2022.
