 Entering Gaussian System, Link 0=g09
 Input=estrutura49_D2O.com
 Output=estrutura49_D2O.log
 Initial command:
 /home/scr/programs/g09/l1.exe "/home/scr/diego/Gau-12769.inp" -scrdir="/home/scr/diego/"
 Entering Link 1 = /home/scr/programs/g09/l1.exe PID=     12771.
  
 Copyright (c) 1988,1990,1992,1993,1995,1998,2003,2009,2013,
            Gaussian, Inc.  All Rights Reserved.
  
 This is part of the Gaussian(R) 09 program.  It is based on
 the Gaussian(R) 03 system (copyright 2003, Gaussian, Inc.),
 the Gaussian(R) 98 system (copyright 1998, Gaussian, Inc.),
 the Gaussian(R) 94 system (copyright 1995, Gaussian, Inc.),
 the Gaussian 92(TM) system (copyright 1992, Gaussian, Inc.),
 the Gaussian 90(TM) system (copyright 1990, Gaussian, Inc.),
 the Gaussian 88(TM) system (copyright 1988, Gaussian, Inc.),
 the Gaussian 86(TM) system (copyright 1986, Carnegie Mellon
 University), and the Gaussian 82(TM) system (copyright 1983,
 Carnegie Mellon University). Gaussian is a federally registered
 trademark of Gaussian, Inc.
  
 This software contains proprietary and confidential information,
 including trade secrets, belonging to Gaussian, Inc.
  
 This software is provided under written license and may be
 used, copied, transmitted, or stored only in accord with that
 written license.
  
 The following legend is applicable only to US Government
 contracts under FAR:
  
                    RESTRICTED RIGHTS LEGEND
  
 Use, reproduction and disclosure by the US Government is
 subject to restrictions as set forth in subparagraphs (a)
 and (c) of the Commercial Computer Software - Restricted
 Rights clause in FAR 52.227-19.
  
 Gaussian, Inc.
 340 Quinnipiac St., Bldg. 40, Wallingford CT 06492
  
  
 ---------------------------------------------------------------
 Warning -- This program may not be used in any manner that
 competes with the business of Gaussian, Inc. or will provide
 assistance to any competitor of Gaussian, Inc.  The licensee
 of this program is prohibited from giving any competitor of
 Gaussian, Inc. access to this program.  By using this program,
 the user acknowledges that Gaussian, Inc. is engaged in the
 business of creating and licensing software in the field of
 computational chemistry and represents and warrants to the
 licensee that it is not a competitor of Gaussian, Inc. and that
 it will not use this program in any manner prohibited above.
 ---------------------------------------------------------------
  

 Cite this work as:
 Gaussian 09, Revision D.01,
 M. J. Frisch, G. W. Trucks, H. B. Schlegel, G. E. Scuseria, 
 M. A. Robb, J. R. Cheeseman, G. Scalmani, V. Barone, B. Mennucci, 
 G. A. Petersson, H. Nakatsuji, M. Caricato, X. Li, H. P. Hratchian, 
 A. F. Izmaylov, J. Bloino, G. Zheng, J. L. Sonnenberg, M. Hada, 
 M. Ehara, K. Toyota, R. Fukuda, J. Hasegawa, M. Ishida, T. Nakajima, 
 Y. Honda, O. Kitao, H. Nakai, T. Vreven, J. A. Montgomery, Jr., 
 J. E. Peralta, F. Ogliaro, M. Bearpark, J. J. Heyd, E. Brothers, 
 K. N. Kudin, V. N. Staroverov, T. Keith, R. Kobayashi, J. Normand, 
 K. Raghavachari, A. Rendell, J. C. Burant, S. S. Iyengar, J. Tomasi, 
 M. Cossi, N. Rega, J. M. Millam, M. Klene, J. E. Knox, J. B. Cross, 
 V. Bakken, C. Adamo, J. Jaramillo, R. Gomperts, R. E. Stratmann, 
 O. Yazyev, A. J. Austin, R. Cammi, C. Pomelli, J. W. Ochterski, 
 R. L. Martin, K. Morokuma, V. G. Zakrzewski, G. A. Voth, 
 P. Salvador, J. J. Dannenberg, S. Dapprich, A. D. Daniels, 
 O. Farkas, J. B. Foresman, J. V. Ortiz, J. Cioslowski, 
 and D. J. Fox, Gaussian, Inc., Wallingford CT, 2013.
 
 ******************************************
 Gaussian 09:  EM64L-G09RevD.01 24-Apr-2013
                18-Aug-2021 
 ******************************************
 %mem=15gb
 %nproc=8
 Will use up to    8 processors via shared memory.
 ------------------------------------------------------------
 #b3lyp/gen pseudo=read opt freq=noraman scrf=(solvent=water)
 ------------------------------------------------------------
 1/14=-1,18=20,19=15,26=3,38=1/1,3;
 2/9=110,12=2,17=6,18=5,40=1/2;
 3/5=7,11=2,16=1,17=8,25=1,30=1,70=2201,71=1,72=1,74=-5/1,2,3;
 4//1;
 5/5=2,38=5,53=1/2;
 6/7=2,8=2,9=2,10=2,28=1/1;
 7//1,2,3,16;
 1/14=-1,18=20,19=15,26=3/3(2);
 2/9=110/2;
 99//99;
 2/9=110/2;
 3/5=7,6=1,11=2,16=1,17=8,25=1,30=1,70=2205,71=1,72=1,74=-5,82=7/1,2,3;
 4/5=5,16=3,69=1/1;
 5/5=2,38=5,53=1/2;
 7//1,2,3,16;
 1/14=-1,18=20,19=15,26=3/3(-5);
 2/9=110/2;
 6/7=2,8=2,9=2,10=2,19=2,28=1/1;
 99/9=1/99;
 ------------
 Estrutura 49
 ------------
 Symbolic Z-matrix:
 Charge = -2 Multiplicity = 1
 Pt                   -0.31955   0.33835   0. 
 N                    -0.31955  -1.65165   0. 
 N                    -0.31955   0.33835   1.99 
 O                     0.95213  -2.10499   0.1641 
 O                    -0.81328  -2.10499  -1.18335 
 O                     0.74918  -0.37012   2.44333 
 O                    -1.46746  -0.23297   2.44333 
 Br                   -2.74955   0.33835   0. 
 Br                   -0.31955   0.33835  -2.43 
 Br                    2.11045   0.33835   0. 
 Br                   -0.31955   2.32835   0. 
 

 GradGradGradGradGradGradGradGradGradGradGradGradGradGradGradGradGradGrad
 Berny optimization.
 Initialization pass.
                           ----------------------------
                           !    Initial Parameters    !
                           ! (Angstroms and Degrees)  !
 --------------------------                            --------------------------
 ! Name  Definition              Value          Derivative Info.                !
 --------------------------------------------------------------------------------
 ! R1    R(1,2)                  1.99           estimate D2E/DX2                !
 ! R2    R(1,3)                  1.99           estimate D2E/DX2                !
 ! R3    R(1,8)                  2.43           estimate D2E/DX2                !
 ! R4    R(1,9)                  2.43           estimate D2E/DX2                !
 ! R5    R(1,10)                 2.43           estimate D2E/DX2                !
 ! R6    R(1,11)                 1.99           estimate D2E/DX2                !
 ! R7    R(2,4)                  1.36           estimate D2E/DX2                !
 ! R8    R(2,5)                  1.36           estimate D2E/DX2                !
 ! R9    R(3,6)                  1.36           estimate D2E/DX2                !
 ! R10   R(3,7)                  1.36           estimate D2E/DX2                !
 ! A1    A(2,1,3)               90.0            estimate D2E/DX2                !
 ! A2    A(2,1,8)               90.0            estimate D2E/DX2                !
 ! A3    A(2,1,9)               90.0            estimate D2E/DX2                !
 ! A4    A(2,1,10)              90.0            estimate D2E/DX2                !
 ! A5    A(3,1,8)               90.0            estimate D2E/DX2                !
 ! A6    A(3,1,10)              90.0            estimate D2E/DX2                !
 ! A7    A(3,1,11)              90.0            estimate D2E/DX2                !
 ! A8    A(8,1,9)               90.0            estimate D2E/DX2                !
 ! A9    A(8,1,11)              90.0            estimate D2E/DX2                !
 ! A10   A(9,1,10)              90.0            estimate D2E/DX2                !
 ! A11   A(9,1,11)              90.0            estimate D2E/DX2                !
 ! A12   A(10,1,11)             90.0            estimate D2E/DX2                !
 ! A13   A(1,2,4)              109.4712         estimate D2E/DX2                !
 ! A14   A(1,2,5)              109.4712         estimate D2E/DX2                !
 ! A15   A(4,2,5)              109.4713         estimate D2E/DX2                !
 ! A16   A(1,3,6)              109.4712         estimate D2E/DX2                !
 ! A17   A(1,3,7)              109.4712         estimate D2E/DX2                !
 ! A18   A(6,3,7)              109.4713         estimate D2E/DX2                !
 ! A19   L(2,1,11,3,-1)        180.0            estimate D2E/DX2                !
 ! A20   L(3,1,9,2,-1)         180.0            estimate D2E/DX2                !
 ! A21   L(8,1,10,2,-1)        180.0            estimate D2E/DX2                !
 ! A22   L(2,1,11,3,-2)        180.0            estimate D2E/DX2                !
 ! A23   L(3,1,9,2,-2)         180.0            estimate D2E/DX2                !
 ! A24   L(8,1,10,2,-2)        180.0            estimate D2E/DX2                !
 ! D1    D(3,1,2,4)            -82.6472         estimate D2E/DX2                !
 ! D2    D(3,1,2,5)            157.3528         estimate D2E/DX2                !
 ! D3    D(8,1,2,4)           -172.6472         estimate D2E/DX2                !
 ! D4    D(8,1,2,5)             67.3528         estimate D2E/DX2                !
 ! D5    D(9,1,2,4)             97.3528         estimate D2E/DX2                !
 ! D6    D(9,1,2,5)            -22.6472         estimate D2E/DX2                !
 ! D7    D(10,1,2,4)             7.3528         estimate D2E/DX2                !
 ! D8    D(10,1,2,5)          -112.6472         estimate D2E/DX2                !
 ! D9    D(2,1,3,6)             56.4594         estimate D2E/DX2                !
 ! D10   D(2,1,3,7)            -63.5406         estimate D2E/DX2                !
 ! D11   D(8,1,3,6)            146.4594         estimate D2E/DX2                !
 ! D12   D(8,1,3,7)             26.4594         estimate D2E/DX2                !
 ! D13   D(10,1,3,6)           -33.5406         estimate D2E/DX2                !
 ! D14   D(10,1,3,7)          -153.5406         estimate D2E/DX2                !
 ! D15   D(11,1,3,6)          -123.5406         estimate D2E/DX2                !
 ! D16   D(11,1,3,7)           116.4594         estimate D2E/DX2                !
 --------------------------------------------------------------------------------
 Trust Radius=3.00D-01 FncErr=1.00D-07 GrdErr=1.00D-06
 Number of steps in this run=     60 maximum allowed number of steps=    100.
 GradGradGradGradGradGradGradGradGradGradGradGradGradGradGradGradGradGrad

                          Input orientation:                          
 ---------------------------------------------------------------------
 Center     Atomic      Atomic             Coordinates (Angstroms)
 Number     Number       Type             X           Y           Z
 ---------------------------------------------------------------------
      1         78           0       -0.319549    0.338346    0.000000
      2          7           0       -0.319549   -1.651654    0.000000
      3          7           0       -0.319549    0.338346    1.990000
      4          8           0        0.952128   -2.104987    0.164097
      5          8           0       -0.813275   -2.104987   -1.183353
      6          8           0        0.749175   -0.370116    2.443333
      7          8           0       -1.467457   -0.232965    2.443333
      8         35           0       -2.749549    0.338346    0.000000
      9         35           0       -0.319549    0.338346   -2.430000
     10         35           0        2.110451    0.338346    0.000000
     11         35           0       -0.319549    2.328346    0.000000
 ---------------------------------------------------------------------
                    Distance matrix (angstroms):
                    1          2          3          4          5
     1  Pt   0.000000
     2  N    1.990000   0.000000
     3  N    1.990000   2.814285   0.000000
     4  O    2.759341   1.360000   3.304687   0.000000
     5  O    2.759341   1.360000   4.035320   2.220871   0.000000
     6  O    2.759341   2.958781   1.360000   2.871565   4.313221
     7  O    2.759341   3.049631   1.360000   3.814941   4.133433
     8  Br   2.430000   3.140860   3.140860   4.438380   3.334570
     9  Br   2.430000   3.140860   4.420000   3.783699   2.787072
    10  Br   2.430000   3.140860   3.140860   2.708970   3.989784
    11  Br   1.990000   3.980000   2.814285   4.615033   4.615033
                    6          7          8          9         10
     6  O    0.000000
     7  O    2.220871   0.000000
     8  Br   4.325837   2.817806   0.000000
     9  Br   5.039193   5.039193   3.436539   0.000000
    10  Br   2.885284   4.370091   4.860000   3.436539   0.000000
    11  Br   3.793909   3.721274   3.140860   3.140860   3.140860
                   11
    11  Br   0.000000
 Stoichiometry    Br4N2O4Pt(2-)
 Framework group  C1[X(Br4N2O4Pt)]
 Deg. of freedom    27
 Full point group                 C1      NOp   1
 Largest Abelian subgroup         C1      NOp   1
 Largest concise Abelian subgroup C1      NOp   1
                         Standard orientation:                         
 ---------------------------------------------------------------------
 Center     Atomic      Atomic             Coordinates (Angstroms)
 Number     Number       Type             X           Y           Z
 ---------------------------------------------------------------------
      1         78           0        0.010918   -0.154139    0.017907
      2          7           0       -0.167847   -0.249234    1.997578
      3          7           0       -0.093269   -2.138648   -0.086829
      4          8           0       -1.481946   -0.362296    2.329182
      5          8           0        0.344434    0.881141    2.553834
      6          8           0       -1.243577   -2.563869    0.501030
      7          8           0        0.973362   -2.683245    0.557620
      8         35           0        2.427747   -0.292190    0.229516
      9         35           0        0.138140    2.269156    0.145800
     10         35           0       -2.405911   -0.016088   -0.193702
     11         35           0        0.189683   -0.059044   -1.961765
 ---------------------------------------------------------------------
 Rotational constants (GHZ):      0.3930794      0.3214998      0.2935751
 General basis read from cards:  (5D, 7F)
 ======================================================================================================
                                       Pseudopotential Parameters
 ======================================================================================================
  Center     Atomic      Valence      Angular      Power
  Number     Number     Electrons     Momentum     of R      Exponent        Coefficient   SO-Coeffient
 ======================================================================================================
    1         78           18
                                      G and up 
                                                     1      728.9394056       -0.16192680    0.00000000
                                                     2      320.6567800    -1320.28738520    0.00000000
                                                     2       52.8680174     -298.31781350    0.00000000
                                                     2       12.0280128      -87.58370650    0.00000000
                                                     2        3.5238913       -8.14932740    0.00000000
                                      S - G
                                                     0      409.4437358        2.73342180    0.00000000
                                                     1      274.5419231       59.70243290    0.00000000
                                                     2      127.5658570      891.45895500    0.00000000
                                                     2       32.9036631      368.44676560    0.00000000
                                                     2        5.0593880      238.02630900    0.00000000
                                                     2        4.1506556     -107.05564540    0.00000000
                                      P - G
                                                     0      466.1728892        1.88785680    0.00000000
                                                     1      120.7888259       76.01386290    0.00000000
                                                     2       36.4118791      343.55111160    0.00000000
                                                     2        5.6985408      119.49117860    0.00000000
                                      D - G
                                                     0      249.5650763        2.93436780    0.00000000
                                                     1      126.6678585       59.33065710    0.00000000
                                                     2       63.1430586      452.44451940    0.00000000
                                                     2       17.9059470      210.47694790    0.00000000
                                                     2        4.2239373       58.62541120    0.00000000
                                      F - G
                                                     0      121.8158799        3.95342530    0.00000000
                                                     1       60.8757030       53.85551820    0.00000000
                                                     2       31.4767147      247.43051330    0.00000000
                                                     2        9.8811751      127.81879760    0.00000000
                                                     2        2.7319874       15.37720460    0.00000000
    2          7
                                   No pseudopotential on this center.
    3          7
                                   No pseudopotential on this center.
    4          8
                                   No pseudopotential on this center.
    5          8
                                   No pseudopotential on this center.
    6          8
                                   No pseudopotential on this center.
    7          8
                                   No pseudopotential on this center.
    8         35
                                   No pseudopotential on this center.
    9         35
                                   No pseudopotential on this center.
   10         35
                                   No pseudopotential on this center.
   11         35
                                   No pseudopotential on this center.
 ======================================================================================================
 There are   254 symmetry adapted cartesian basis functions of A   symmetry.
 There are   234 symmetry adapted basis functions of A   symmetry.
   234 basis functions,   513 primitive gaussians,   254 cartesian basis functions
   103 alpha electrons      103 beta electrons
       nuclear repulsion energy      3036.3595581786 Hartrees.
 NAtoms=   11 NActive=   11 NUniq=   11 SFac= 1.00D+00 NAtFMM=   60 NAOKFM=F Big=F
 Integral buffers will be    131072 words long.
 Raffenetti 2 integral format.
 Two-electron integral symmetry is turned on.
 ------------------------------------------------------------------------------
 Polarizable Continuum Model (PCM)
 =================================
 Model                : PCM (using non-symmetric T matrix).
 Atomic radii         : UFF (Universal Force Field).
 Polarization charges : Total charges.
 Charge compensation  : None.
 Solution method      : On-the-fly selection.
 Cavity type          : Scaled VdW (van der Waals Surface) (Alpha=1.100).
 Cavity algorithm     : GePol (No added spheres)
                        Default sphere list used, NSphG=   11.
                        Lebedev-Laikov grids with approx.  5.0 points / Ang**2.
                        Smoothing algorithm: Karplus/York (Gamma=1.0000).
                        Polarization charges: spherical gaussians, with
                                              point-specific exponents (IZeta= 3).
                        Self-potential: point-specific (ISelfS= 7).
                        Self-field    : sphere-specific E.n sum rule (ISelfD= 2).
 1st derivatives      : Analytical E(r).r(x)/FMM algorithm (CHGder, D1EAlg=3).
                        Cavity 1st derivative terms included.
 Solvent              : Water, Eps=  78.355300 Eps(inf)=   1.777849
 ------------------------------------------------------------------------------
 Spheres list:
 ISph  on   Nord     Re0    Alpha      Xe            Ye            Ze
    1  Pt      1    1.3770  1.100      0.010918     -0.154139      0.017907
    2   N      2    1.8300  1.100     -0.167847     -0.249234      1.997578
    3   N      3    1.8300  1.100     -0.093269     -2.138648     -0.086829
    4   O      4    1.7500  1.100     -1.481946     -0.362296      2.329182
    5   O      5    1.7500  1.100      0.344434      0.881141      2.553834
    6   O      6    1.7500  1.100     -1.243577     -2.563869      0.501030
    7   O      7    1.7500  1.100      0.973362     -2.683245      0.557620
    8  Br      8    2.0945  1.100      2.427747     -0.292190      0.229516
    9  Br      9    2.0945  1.100      0.138140      2.269156      0.145800
   10  Br     10    2.0945  1.100     -2.405911     -0.016088     -0.193702
   11  Br     11    2.0945  1.100      0.189683     -0.059044     -1.961765
 ------------------------------------------------------------------------------
 One-electron integrals computed using PRISM.
   1 Symmetry operations used in ECPInt.
 ECPInt:  NShTT=    4278 NPrTT=   21985 LenC2=    3930 LenP2D=   13738.
 LDataN:  DoStor=T MaxTD1= 6 Len=  172
 NBasis=   234 RedAO= T EigKep=  2.22D-03  NBF=   234
 NBsUse=   234 1.00D-06 EigRej= -1.00D+00 NBFU=   234
 Defaulting to unpruned grid for atomic number  78.
 ExpMin= 2.90D-02 ExpMax= 1.13D+05 ExpMxC= 1.70D+04 IAcc=3 IRadAn=         5 AccDes= 0.00D+00
 Harris functional with IExCor=  402 and IRadAn=       5 diagonalized for initial guess.
 HarFok:  IExCor=  402 AccDes= 0.00D+00 IRadAn=         5 IDoV= 1 UseB2=F ITyADJ=14
 ICtDFT=  3500011 ScaDFX=  1.000000  1.000000  1.000000  1.000000
 Defaulting to unpruned grid for atomic number  78.
 Defaulting to unpruned grid for atomic number  78.
 Defaulting to unpruned grid for atomic number  78.
 Defaulting to unpruned grid for atomic number  78.
 Defaulting to unpruned grid for atomic number  78.
 Defaulting to unpruned grid for atomic number  78.
 Defaulting to unpruned grid for atomic number  78.
 Defaulting to unpruned grid for atomic number  78.
 FoFCou: FMM=F IPFlag=           0 FMFlag=      100000 FMFlg1=           0
         NFxFlg=           0 DoJE=T BraDBF=F KetDBF=T FulRan=T
         wScrn=  0.000000 ICntrl=     500 IOpCl=  0 I1Cent=   200000004 NGrid=           0
         NMat0=    1 NMatS0=      1 NMatT0=    0 NMatD0=    1 NMtDS0=    0 NMtDT0=    0
 Petite list used in FoFCou.
 Keep R1 ints in memory in canonical form, NReq=386507822.
 Requested convergence on RMS density matrix=1.00D-08 within 128 cycles.
 Requested convergence on MAX density matrix=1.00D-06.
 Requested convergence on             energy=1.00D-06.
 No special actions if energy rises.
 Defaulting to unpruned grid for atomic number  78.
 Defaulting to unpruned grid for atomic number  78.
 Defaulting to unpruned grid for atomic number  78.
 Defaulting to unpruned grid for atomic number  78.
 Defaulting to unpruned grid for atomic number  78.
 Defaulting to unpruned grid for atomic number  78.
 Defaulting to unpruned grid for atomic number  78.
 Defaulting to unpruned grid for atomic number  78.
 Inv3:  Mode=1 IEnd=     8157603.
 Iteration    1 A*A^-1 deviation from unit magnitude is 6.33D-15 for    717.
 Iteration    1 A*A^-1 deviation from orthogonality  is 6.66D-15 for   1397   1240.
 Iteration    1 A^-1*A deviation from unit magnitude is 5.77D-15 for    807.
 Iteration    1 A^-1*A deviation from orthogonality  is 5.35D-13 for    917    654.
 EnCoef did     6 forward-backward iterations
 Error on total polarization charges =  0.01518
 SCF Done:  E(RB3LYP) =  -10824.6902807     A.U. after   20 cycles
            NFock= 20  Conv=0.33D-08     -V/T= 2.0089

 **********************************************************************

            Population analysis using the SCF density.

 **********************************************************************

 Orbital symmetries:
       Occupied  (A) (A) (A) (A) (A) (A) (A) (A) (A) (A) (A) (A)
                 (A) (A) (A) (A) (A) (A) (A) (A) (A) (A) (A) (A)
                 (A) (A) (A) (A) (A) (A) (A) (A) (A) (A) (A) (A)
                 (A) (A) (A) (A) (A) (A) (A) (A) (A) (A) (A) (A)
                 (A) (A) (A) (A) (A) (A) (A) (A) (A) (A) (A) (A)
                 (A) (A) (A) (A) (A) (A) (A) (A) (A) (A) (A) (A)
                 (A) (A) (A) (A) (A) (A) (A) (A) (A) (A) (A) (A)
                 (A) (A) (A) (A) (A) (A) (A) (A) (A) (A) (A) (A)
                 (A) (A) (A) (A) (A) (A) (A)
       Virtual   (A) (A) (A) (A) (A) (A) (A) (A) (A) (A) (A) (A)
                 (A) (A) (A) (A) (A) (A) (A) (A) (A) (A) (A) (A)
                 (A) (A) (A) (A) (A) (A) (A) (A) (A) (A) (A) (A)
                 (A) (A) (A) (A) (A) (A) (A) (A) (A) (A) (A) (A)
                 (A) (A) (A) (A) (A) (A) (A) (A) (A) (A) (A) (A)
                 (A) (A) (A) (A) (A) (A) (A) (A) (A) (A) (A) (A)
                 (A) (A) (A) (A) (A) (A) (A) (A) (A) (A) (A) (A)
                 (A) (A) (A) (A) (A) (A) (A) (A) (A) (A) (A) (A)
                 (A) (A) (A) (A) (A) (A) (A) (A) (A) (A) (A) (A)
                 (A) (A) (A) (A) (A) (A) (A) (A) (A) (A) (A) (A)
                 (A) (A) (A) (A) (A) (A) (A) (A) (A) (A) (A)
 The electronic state is 1-A.
 Alpha  occ. eigenvalues -- -482.75170-482.74998-482.74233-482.74001 -62.43717
 Alpha  occ. eigenvalues --  -62.43154 -62.42412 -62.42174 -56.26857 -56.26562
 Alpha  occ. eigenvalues --  -56.26560 -56.26364 -56.26044 -56.26038 -56.25610
 Alpha  occ. eigenvalues --  -56.25381 -56.25312 -56.25289 -56.25069 -56.25049
 Alpha  occ. eigenvalues --  -19.14272 -19.14010 -19.12417 -19.12293 -14.49271
 Alpha  occ. eigenvalues --  -14.46304  -8.66007  -8.64928  -8.64200  -8.63963
 Alpha  occ. eigenvalues --   -6.49466  -6.48186  -6.48021  -6.48013  -6.47434
 Alpha  occ. eigenvalues --   -6.47225  -6.47034  -6.47013  -6.46348  -6.46269
 Alpha  occ. eigenvalues --   -6.46093  -6.46021  -4.03074  -2.61044  -2.60498
 Alpha  occ. eigenvalues --   -2.60491  -2.59626  -2.59354  -2.59352  -2.59309
 Alpha  occ. eigenvalues --   -2.59291  -2.58882  -2.58668  -2.58595  -2.58534
 Alpha  occ. eigenvalues --   -2.58385  -2.58384  -2.58366  -2.58310  -2.57679
 Alpha  occ. eigenvalues --   -2.57678  -2.57421  -2.57418  -2.26028  -2.24510
 Alpha  occ. eigenvalues --   -2.23934  -1.09075  -1.07161  -0.92983  -0.91238
 Alpha  occ. eigenvalues --   -0.79338  -0.73554  -0.72398  -0.71695  -0.65214
 Alpha  occ. eigenvalues --   -0.63068  -0.49867  -0.49051  -0.48407  -0.46492
 Alpha  occ. eigenvalues --   -0.45918  -0.43178  -0.41716  -0.41413  -0.39875
 Alpha  occ. eigenvalues --   -0.39271  -0.37966  -0.35636  -0.31691  -0.28067
 Alpha  occ. eigenvalues --   -0.27028  -0.26821  -0.26513  -0.25987  -0.25567
 Alpha  occ. eigenvalues --   -0.25061  -0.24496  -0.24257  -0.23566  -0.22888
 Alpha  occ. eigenvalues --   -0.22201  -0.21537  -0.20699
 Alpha virt. eigenvalues --   -0.13092  -0.09880  -0.07298  -0.01233   0.05656
 Alpha virt. eigenvalues --    0.06023   0.06219   0.17093   0.18571   0.20098
 Alpha virt. eigenvalues --    0.20738   0.21215   0.24924   0.27097   0.27823
 Alpha virt. eigenvalues --    0.32679   0.35711   0.38297   0.39655   0.42023
 Alpha virt. eigenvalues --    0.44265   0.45546   0.49960   0.51039   0.52518
 Alpha virt. eigenvalues --    0.52568   0.52732   0.54015   0.54661   0.55634
 Alpha virt. eigenvalues --    0.56252   0.56397   0.56699   0.57622   0.58655
 Alpha virt. eigenvalues --    0.59722   0.61235   0.62493   0.62699   0.63816
 Alpha virt. eigenvalues --    0.64290   0.66250   0.68462   0.71395   0.72970
 Alpha virt. eigenvalues --    0.77707   0.80176   0.85448   0.87852   0.88404
 Alpha virt. eigenvalues --    0.90083   0.90792   0.91484   0.93108   0.94036
 Alpha virt. eigenvalues --    0.95584   0.97323   0.99732   1.00096   1.00799
 Alpha virt. eigenvalues --    1.02437   1.04010   1.05641   1.06747   1.09341
 Alpha virt. eigenvalues --    1.10455   1.13366   1.14195   1.17742   1.20445
 Alpha virt. eigenvalues --    1.22656   1.23763   1.24600   1.27784   1.29516
 Alpha virt. eigenvalues --    1.37205   1.42558   1.43028   1.45604   1.54617
 Alpha virt. eigenvalues --    1.92106   1.93195   2.00706   2.03934   2.07915
 Alpha virt. eigenvalues --    2.11035   2.31538   2.33532   2.34973   2.36459
 Alpha virt. eigenvalues --    2.65163   2.66667   2.67453   2.67694   2.68843
 Alpha virt. eigenvalues --    2.69158   2.71450   2.71681   2.76212   2.77669
 Alpha virt. eigenvalues --    2.97348   3.00748   3.01469   3.03402   3.22251
 Alpha virt. eigenvalues --    3.24330   3.42832   3.43186   3.44716   3.45642
 Alpha virt. eigenvalues --    3.46697   3.47591   3.47859   3.49512   3.49742
 Alpha virt. eigenvalues --    3.51271   3.51686   3.54613   3.56615   3.58599
 Alpha virt. eigenvalues --    3.61496   3.65642   3.68811   3.70842   3.72293
 Alpha virt. eigenvalues --    3.74014   3.74602   3.80292   3.83811   3.89237
 Alpha virt. eigenvalues --   10.30902
          Condensed to atoms (all electrons):
               1          2          3          4          5          6
     1  Pt  17.934368   0.091857   0.004838  -0.015684  -0.023362  -0.009331
     2  N    0.091857   6.622641  -0.011615   0.176947   0.186259  -0.004207
     3  N    0.004838  -0.011615   6.767256  -0.002238   0.000212   0.185833
     4  O   -0.015684   0.176947  -0.002238   8.254243  -0.093089   0.003494
     5  O   -0.023362   0.186259   0.000212  -0.093089   8.254884   0.000034
     6  O   -0.009331  -0.004207   0.185833   0.003494   0.000034   8.199785
     7  O   -0.000893  -0.003622   0.175650   0.000132   0.000001  -0.096516
     8  Br   0.218457  -0.021078  -0.024492   0.000573   0.000921   0.000439
     9  Br   0.233824  -0.008721  -0.004461  -0.000029  -0.020269   0.000083
    10  Br   0.238193  -0.019805  -0.023773  -0.028466   0.000604  -0.019360
    11  Br  -0.454933  -0.021445  -0.083313   0.000825   0.000689   0.000394
               7          8          9         10         11
     1  Pt  -0.000893   0.218457   0.233824   0.238193  -0.454933
     2  N   -0.003622  -0.021078  -0.008721  -0.019805  -0.021445
     3  N    0.175650  -0.024492  -0.004461  -0.023773  -0.083313
     4  O    0.000132   0.000573  -0.000029  -0.028466   0.000825
     5  O    0.000001   0.000921  -0.020269   0.000604   0.000689
     6  O   -0.096516   0.000439   0.000083  -0.019360   0.000394
     7  O    8.227588  -0.027081   0.000092   0.000428  -0.000201
     8  Br  -0.027081  35.035236  -0.028209  -0.004301  -0.058852
     9  Br   0.000092  -0.028209  34.941805  -0.028081  -0.044045
    10  Br   0.000428  -0.004301  -0.028081  35.033732  -0.079706
    11  Br  -0.000201  -0.058852  -0.044045  -0.079706  36.209264
 Mulliken charges:
               1
     1  Pt  -0.217334
     2  N    0.012790
     3  N    0.016102
     4  O   -0.296708
     5  O   -0.306883
     6  O   -0.260649
     7  O   -0.275577
     8  Br  -0.091613
     9  Br  -0.041989
    10  Br  -0.069465
    11  Br  -0.468675
 Sum of Mulliken charges =  -2.00000
 Mulliken charges with hydrogens summed into heavy atoms:
               1
     1  Pt  -0.217334
     2  N    0.012790
     3  N    0.016102
     4  O   -0.296708
     5  O   -0.306883
     6  O   -0.260649
     7  O   -0.275577
     8  Br  -0.091613
     9  Br  -0.041989
    10  Br  -0.069465
    11  Br  -0.468675
 Electronic spatial extent (au):  <R**2>=           4107.3989
 Charge=             -2.0000 electrons
 Dipole moment (field-independent basis, Debye):
    X=              1.2122    Y=              2.0166    Z=             -5.2613  Tot=              5.7635
 Quadrupole moment (field-independent basis, Debye-Ang):
   XX=           -161.2583   YY=           -160.9033   ZZ=           -159.7099
   XY=             -1.4513   XZ=              2.7632   YZ=              1.3892
 Traceless Quadrupole moment (field-independent basis, Debye-Ang):
   XX=             -0.6345   YY=             -0.2795   ZZ=              0.9140
   XY=             -1.4513   XZ=              2.7632   YZ=              1.3892
 Octapole moment (field-independent basis, Debye-Ang**2):
  XXX=             11.2217  YYY=             59.9308  ZZZ=            -67.9692  XYY=              2.8338
  XXY=             19.0865  XXZ=            -20.5278  XZZ=             11.8683  YZZ=             -0.7715
  YYZ=            -28.1415  XYZ=             -4.1092
 Hexadecapole moment (field-independent basis, Debye-Ang**3):
 XXXX=          -1723.7342 YYYY=          -1539.5519 ZZZZ=          -1289.4161 XXXY=            -11.3400
 XXXZ=             21.1325 YYYX=             -6.1140 YYYZ=             46.4003 ZZZX=             34.0802
 ZZZY=            -21.4985 XXYY=           -551.5731 XXZZ=           -506.4912 YYZZ=           -449.2218
 XXYZ=              9.6957 YYXZ=              3.8158 ZZXY=            -10.5314
 N-N= 3.036359558179D+03 E-N=-3.195862426993D+04  KE= 1.072951921933D+04
   1 Symmetry operations used in ECPInt.
 ECPInt:  NShTT=    4278 NPrTT=   21985 LenC2=    3930 LenP2D=   13738.
 LDataN:  DoStor=T MaxTD1= 7 Len=  274
 D1PCM: PCM CHGder 1st derivatives, ID1Alg=3 FixD1E=F DoIter=F DoCFld=F I1PDM=0.
 Calling FoFJK, ICntrl=      2127 FMM=F ISym2X=0 I1Cent= 0 IOpClX= 0 NMat=1 NMatS=1 NMatT=0.
 Defaulting to unpruned grid for atomic number  78.
 Defaulting to unpruned grid for atomic number  78.
 Defaulting to unpruned grid for atomic number  78.
 Defaulting to unpruned grid for atomic number  78.
 Defaulting to unpruned grid for atomic number  78.
 Defaulting to unpruned grid for atomic number  78.
 Defaulting to unpruned grid for atomic number  78.
 Defaulting to unpruned grid for atomic number  78.
 ***** Axes restored to original set *****
 -------------------------------------------------------------------
 Center     Atomic                   Forces (Hartrees/Bohr)
 Number     Number              X              Y              Z
 -------------------------------------------------------------------
      1       78          -0.014247417   -0.247620446   -0.005897891
      2        7           0.097107398   -0.123782260   -0.126288456
      3        7          -0.009026544   -0.179786712    0.116221661
      4        8          -0.097518114    0.010683551    0.018363097
      5        8           0.004635057    0.014702761    0.097475480
      6        8          -0.064872092    0.077924790   -0.017958556
      7        8           0.073414678    0.068725306   -0.014307735
      8       35          -0.046119940   -0.000827897   -0.011890487
      9       35           0.002872340    0.002283353   -0.040160024
     10       35           0.050980167    0.012430921   -0.010808615
     11       35           0.002774466    0.365266633   -0.004748474
 -------------------------------------------------------------------
 Cartesian Forces:  Max     0.365266633 RMS     0.099848864

 GradGradGradGradGradGradGradGradGradGradGradGradGradGradGradGradGradGrad
 Berny optimization.
 FormGI is forming the generalized inverse of G from B-inverse, IUseBI=4.
 Internal  Forces:  Max     0.365262788 RMS     0.064600598
 Search for a local minimum.
 Step number   1 out of a maximum of   60
 All quantities printed in internal units (Hartrees-Bohrs-Radians)
 Mixed Optimization -- RFO/linear search
 Second derivative matrix not updated -- first step.
 ITU=  0
     Eigenvalues ---    0.00230   0.00230   0.04734   0.04734   0.08487
     Eigenvalues ---    0.08487   0.08487   0.09416   0.12615   0.14009
     Eigenvalues ---    0.16743   0.16743   0.19509   0.19509   0.19509
     Eigenvalues ---    0.20378   0.20378   0.25000   0.25000   0.25000
     Eigenvalues ---    0.25000   0.25000   0.52948   0.52948   0.52948
     Eigenvalues ---    0.52948   0.90956
 RFO step:  Lambda=-2.55450448D-01 EMin= 2.30000000D-03
 Linear search not attempted -- first point.
 Maximum step size (   0.300) exceeded in Quadratic search.
    -- Step size scaled by   0.531
 Iteration  1 RMS(Cart)=  0.07174369 RMS(Int)=  0.00188556
 Iteration  2 RMS(Cart)=  0.00200722 RMS(Int)=  0.00096254
 Iteration  3 RMS(Cart)=  0.00000585 RMS(Int)=  0.00096253
 Iteration  4 RMS(Cart)=  0.00000002 RMS(Int)=  0.00096253
 Variable       Old X    -DE/DX   Delta X   Delta X   Delta X     New X
                                 (Linear)    (Quad)   (Total)
    R1        3.76056   0.09841   0.00000   0.11375   0.11375   3.87431
    R2        3.76056   0.08396   0.00000   0.09705   0.09705   3.85760
    R3        4.59203   0.04613   0.00000   0.05435   0.05435   4.64639
    R4        4.59203   0.04016   0.00000   0.04732   0.04732   4.63936
    R5        4.59203   0.05097   0.00000   0.06005   0.06005   4.65209
    R6        3.76056   0.36526   0.00000   0.16643   0.16643   3.92698
    R7        2.57003  -0.09252   0.00000  -0.06257  -0.06257   2.50746
    R8        2.57003  -0.09141   0.00000  -0.06182  -0.06182   2.50821
    R9        2.57003  -0.09755   0.00000  -0.06597  -0.06597   2.50406
   R10        2.57003  -0.09563   0.00000  -0.06468  -0.06468   2.50535
    A1        1.57080  -0.01721   0.00000  -0.01972  -0.01971   1.55109
    A2        1.57080  -0.00926   0.00000  -0.01117  -0.01105   1.55975
    A3        1.57080   0.01024   0.00000   0.01003   0.01004   1.58084
    A4        1.57080   0.01813   0.00000   0.02502   0.02509   1.59588
    A5        1.57080   0.01095   0.00000   0.01700   0.01695   1.58775
    A6        1.57080   0.00643   0.00000   0.01011   0.01036   1.58115
    A7        1.57080   0.01404   0.00000   0.01547   0.01548   1.58628
    A8        1.57080  -0.00691   0.00000  -0.01071  -0.01071   1.56008
    A9        1.57080   0.00237   0.00000   0.00072   0.00067   1.57146
   A10        1.57080  -0.01047   0.00000  -0.01640  -0.01646   1.55434
   A11        1.57080  -0.00708   0.00000  -0.00578  -0.00575   1.56505
   A12        1.57080  -0.01125   0.00000  -0.01457  -0.01459   1.55620
   A13        1.91063   0.05019   0.00000   0.06086   0.05867   1.96930
   A14        1.91063   0.03831   0.00000   0.04839   0.04617   1.95681
   A15        1.91063  -0.00946   0.00000   0.00637   0.00262   1.91325
   A16        1.91063   0.03551   0.00000   0.04466   0.04288   1.95352
   A17        1.91063   0.04383   0.00000   0.05339   0.05163   1.96226
   A18        1.91063  -0.00825   0.00000   0.00606   0.00300   1.91363
   A19        3.14159  -0.00316   0.00000  -0.00425  -0.00423   3.13737
   A20        3.14159  -0.00696   0.00000  -0.00969  -0.00967   3.13192
   A21        3.14159   0.00887   0.00000   0.01384   0.01404   3.15563
   A22        3.14159   0.00688   0.00000   0.01045   0.01046   3.15205
   A23        3.14159   0.00403   0.00000   0.00629   0.00635   3.14794
   A24        3.14159  -0.01738   0.00000  -0.02711  -0.02704   3.11455
    D1       -1.44247   0.02266   0.00000   0.03903   0.03985  -1.40261
    D2        2.74632  -0.01995   0.00000  -0.03567  -0.03625   2.71007
    D3       -3.01326   0.01171   0.00000   0.02203   0.02268  -2.99058
    D4        1.17553  -0.03090   0.00000  -0.05267  -0.05342   1.12210
    D5        1.69913   0.01862   0.00000   0.03274   0.03350   1.73263
    D6       -0.39527  -0.02398   0.00000  -0.04196  -0.04260  -0.43787
    D7        0.12833   0.02909   0.00000   0.04914   0.04972   0.17805
    D8       -1.96606  -0.01352   0.00000  -0.02556  -0.02638  -1.99245
    D9        0.98540   0.02791   0.00000   0.04561   0.04621   1.03161
   D10       -1.10899  -0.01057   0.00000  -0.02185  -0.02241  -1.13140
   D11        2.55620   0.01866   0.00000   0.03443   0.03482   2.59102
   D12        0.46180  -0.01982   0.00000  -0.03303  -0.03380   0.42801
   D13       -0.58539   0.00978   0.00000   0.02059   0.02132  -0.56408
   D14       -2.67979  -0.02870   0.00000  -0.04687  -0.04730  -2.72709
   D15       -2.15619   0.02103   0.00000   0.03516   0.03575  -2.12044
   D16        2.03260  -0.01745   0.00000  -0.03230  -0.03287   1.99974
         Item               Value     Threshold  Converged?
 Maximum Force            0.365263     0.000450     NO 
 RMS     Force            0.064601     0.000300     NO 
 Maximum Displacement     0.203706     0.001800     NO 
 RMS     Displacement     0.070916     0.001200     NO 
 Predicted change in Energy=-1.138895D-01
 GradGradGradGradGradGradGradGradGradGradGradGradGradGradGradGradGradGrad

                          Input orientation:                          
 ---------------------------------------------------------------------
 Center     Atomic      Atomic             Coordinates (Angstroms)
 Number     Number       Type             X           Y           Z
 ---------------------------------------------------------------------
      1         78           0       -0.312720    0.354850   -0.018434
      2          7           0       -0.314609   -1.695290   -0.033450
      3          7           0       -0.315065    0.299672    2.022173
      4          8           0        0.890347   -2.212784    0.168834
      5          8           0       -0.828095   -2.186336   -1.154562
      6          8           0        0.738627   -0.345582    2.500966
      7          8           0       -1.425186   -0.234089    2.512489
      8         35           0       -2.770943    0.330280   -0.063618
      9         35           0       -0.294334    0.397464   -2.473037
     10         35           0        2.148246    0.414493   -0.039493
     11         35           0       -0.332540    2.432688    0.005542
 ---------------------------------------------------------------------
                    Distance matrix (angstroms):
                    1          2          3          4          5
     1  Pt   0.000000
     2  N    2.050196   0.000000
     3  N    2.041354   2.864518   0.000000
     4  O    2.841686   1.326890   3.346688   0.000000
     5  O    2.830906   1.327285   4.066336   2.169129   0.000000
     6  O    2.818388   3.058477   1.325090   2.991371   4.382451
     7  O    2.826659   3.138518   1.325775   3.843130   4.197029
     8  Br   2.458762   3.183932   3.222235   4.463883   3.361276
     9  Br   2.455042   3.214283   4.496322   3.898249   2.949458
    10  Br   2.461778   3.242973   3.214274   2.920324   4.106860
    11  Br   2.078071   4.128201   2.935449   4.806508   4.788194
                    6          7          8          9         10
     6  O    0.000000
     7  O    2.166715   0.000000
     8  Br   4.398973   2.960726   0.000000
     9  Br   5.134183   5.151034   3.455923   0.000000
    10  Br   3.003110   4.438771   4.919969   3.447988   0.000000
    11  Br   3.885013   3.819732   3.220359   3.207328   3.198349
                   11
    11  Br   0.000000
 Stoichiometry    Br4N2O4Pt(2-)
 Framework group  C1[X(Br4N2O4Pt)]
 Deg. of freedom    27
 Full point group                 C1      NOp   1
 Largest Abelian subgroup         C1      NOp   1
 Largest concise Abelian subgroup C1      NOp   1
                         Standard orientation:                         
 ---------------------------------------------------------------------
 Center     Atomic      Atomic             Coordinates (Angstroms)
 Number     Number       Type             X           Y           Z
 ---------------------------------------------------------------------
      1         78           0        0.007430   -0.157329    0.016542
      2          7           0       -0.109482   -0.404771    2.048390
      3          7           0       -0.119375   -2.183528   -0.196913
      4          8           0       -1.352783   -0.588224    2.474047
      5          8           0        0.442653    0.606354    2.707527
      6          8           0       -1.236483   -2.667300    0.326440
      7          8           0        0.925307   -2.813247    0.322485
      8         35           0        2.458120   -0.284816    0.169439
      9         35           0        0.143066    2.277976    0.296048
     10         35           0       -2.439855    0.040374   -0.162510
     11         35           0        0.147038    0.083297   -2.042824
 ---------------------------------------------------------------------
 Rotational constants (GHZ):      0.3716024      0.3083629      0.2866411
 Basis read from rwf:  (5D, 7F)
 Pseudo-potential data read from rwf file.
 There are   254 symmetry adapted cartesian basis functions of A   symmetry.
 There are   234 symmetry adapted basis functions of A   symmetry.
   234 basis functions,   513 primitive gaussians,   254 cartesian basis functions
   103 alpha electrons      103 beta electrons
       nuclear repulsion energy      2975.5698640379 Hartrees.
 NAtoms=   11 NActive=   11 NUniq=   11 SFac= 1.00D+00 NAtFMM=   60 NAOKFM=F Big=F
 Integral buffers will be    131072 words long.
 Raffenetti 2 integral format.
 Two-electron integral symmetry is turned on.
 ------------------------------------------------------------------------------
 Polarizable Continuum Model (PCM)
 =================================
 Model                : PCM (using non-symmetric T matrix).
 Atomic radii         : UFF (Universal Force Field).
 Polarization charges : Total charges.
 Charge compensation  : None.
 Solution method      : On-the-fly selection.
 Cavity type          : Scaled VdW (van der Waals Surface) (Alpha=1.100).
 Cavity algorithm     : GePol (No added spheres)
                        Default sphere list used, NSphG=   11.
                        Lebedev-Laikov grids with approx.  5.0 points / Ang**2.
                        Smoothing algorithm: Karplus/York (Gamma=1.0000).
                        Polarization charges: spherical gaussians, with
                                              point-specific exponents (IZeta= 3).
                        Self-potential: point-specific (ISelfS= 7).
                        Self-field    : sphere-specific E.n sum rule (ISelfD= 2).
 1st derivatives      : Analytical E(r).r(x)/FMM algorithm (CHGder, D1EAlg=3).
                        Cavity 1st derivative terms included.
 Solvent              : Water, Eps=  78.355300 Eps(inf)=   1.777849
 ------------------------------------------------------------------------------
 Spheres list:
 ISph  on   Nord     Re0    Alpha      Xe            Ye            Ze
    1  Pt      1    1.3770  1.100      0.007430     -0.157329      0.016542
    2   N      2    1.8300  1.100     -0.109482     -0.404771      2.048390
    3   N      3    1.8300  1.100     -0.119375     -2.183528     -0.196913
    4   O      4    1.7500  1.100     -1.352783     -0.588224      2.474047
    5   O      5    1.7500  1.100      0.442653      0.606354      2.707527
    6   O      6    1.7500  1.100     -1.236483     -2.667300      0.326440
    7   O      7    1.7500  1.100      0.925307     -2.813247      0.322485
    8  Br      8    2.0945  1.100      2.458120     -0.284816      0.169439
    9  Br      9    2.0945  1.100      0.143066      2.277976      0.296048
   10  Br     10    2.0945  1.100     -2.439855      0.040374     -0.162510
   11  Br     11    2.0945  1.100      0.147038      0.083297     -2.042824
 ------------------------------------------------------------------------------
 One-electron integrals computed using PRISM.
   1 Symmetry operations used in ECPInt.
 ECPInt:  NShTT=    4278 NPrTT=   21985 LenC2=    3905 LenP2D=   13596.
 LDataN:  DoStor=T MaxTD1= 6 Len=  172
 NBasis=   234 RedAO= T EigKep=  2.57D-03  NBF=   234
 NBsUse=   234 1.00D-06 EigRej= -1.00D+00 NBFU=   234
 Defaulting to unpruned grid for atomic number  78.
 Initial guess from the checkpoint file:  "/home/scr/diego/Gau-12771.chk"
 B after Tr=     0.000000    0.000000    0.000000
         Rot=    0.999218   -0.037660   -0.011910    0.001715 Ang=  -4.53 deg.
 ExpMin= 2.90D-02 ExpMax= 1.13D+05 ExpMxC= 1.70D+04 IAcc=3 IRadAn=         5 AccDes= 0.00D+00
 Harris functional with IExCor=  402 and IRadAn=       5 diagonalized for initial guess.
 HarFok:  IExCor=  402 AccDes= 0.00D+00 IRadAn=         5 IDoV= 1 UseB2=F ITyADJ=14
 ICtDFT=  3500011 ScaDFX=  1.000000  1.000000  1.000000  1.000000
 Defaulting to unpruned grid for atomic number  78.
 Defaulting to unpruned grid for atomic number  78.
 Defaulting to unpruned grid for atomic number  78.
 Defaulting to unpruned grid for atomic number  78.
 Defaulting to unpruned grid for atomic number  78.
 Defaulting to unpruned grid for atomic number  78.
 Defaulting to unpruned grid for atomic number  78.
 Defaulting to unpruned grid for atomic number  78.
 FoFCou: FMM=F IPFlag=           0 FMFlag=      100000 FMFlg1=           0
         NFxFlg=           0 DoJE=T BraDBF=F KetDBF=T FulRan=T
         wScrn=  0.000000 ICntrl=     500 IOpCl=  0 I1Cent=   200000004 NGrid=           0
         NMat0=    1 NMatS0=      1 NMatT0=    0 NMatD0=    1 NMtDS0=    0 NMtDT0=    0
 Petite list used in FoFCou.
 Keep R1 ints in memory in canonical form, NReq=386507822.
 Requested convergence on RMS density matrix=1.00D-08 within 128 cycles.
 Requested convergence on MAX density matrix=1.00D-06.
 Requested convergence on             energy=1.00D-06.
 No special actions if energy rises.
 Defaulting to unpruned grid for atomic number  78.
 Defaulting to unpruned grid for atomic number  78.
 Defaulting to unpruned grid for atomic number  78.
 Defaulting to unpruned grid for atomic number  78.
 Defaulting to unpruned grid for atomic number  78.
 Defaulting to unpruned grid for atomic number  78.
 Defaulting to unpruned grid for atomic number  78.
 Defaulting to unpruned grid for atomic number  78.
 Inv3:  Mode=1 IEnd=     8578443.
 Iteration    1 A*A^-1 deviation from unit magnitude is 6.33D-15 for    451.
 Iteration    1 A*A^-1 deviation from orthogonality  is 4.06D-15 for    845    449.
 Iteration    1 A^-1*A deviation from unit magnitude is 7.99D-15 for    851.
 Iteration    1 A^-1*A deviation from orthogonality  is 2.06D-12 for   1475    682.
 Error on total polarization charges =  0.01437
 SCF Done:  E(RB3LYP) =  -10824.8039860     A.U. after   15 cycles
            NFock= 15  Conv=0.74D-08     -V/T= 2.0089
   1 Symmetry operations used in ECPInt.
 ECPInt:  NShTT=    4278 NPrTT=   21985 LenC2=    3905 LenP2D=   13596.
 LDataN:  DoStor=T MaxTD1= 7 Len=  274
 D1PCM: PCM CHGder 1st derivatives, ID1Alg=3 FixD1E=F DoIter=F DoCFld=F I1PDM=0.
 Calling FoFJK, ICntrl=      2127 FMM=F ISym2X=0 I1Cent= 0 IOpClX= 0 NMat=1 NMatS=1 NMatT=0.
 Defaulting to unpruned grid for atomic number  78.
 Defaulting to unpruned grid for atomic number  78.
 Defaulting to unpruned grid for atomic number  78.
 Defaulting to unpruned grid for atomic number  78.
 Defaulting to unpruned grid for atomic number  78.
 Defaulting to unpruned grid for atomic number  78.
 Defaulting to unpruned grid for atomic number  78.
 Defaulting to unpruned grid for atomic number  78.
 ***** Axes restored to original set *****
 -------------------------------------------------------------------
 Center     Atomic                   Forces (Hartrees/Bohr)
 Number     Number              X              Y              Z
 -------------------------------------------------------------------
      1       78          -0.009679399   -0.159667864    0.001129449
      2        7           0.089801075   -0.104858432   -0.115963016
      3        7          -0.006339315   -0.163297434    0.098808315
      4        8          -0.078271957    0.023052335    0.023407475
      5        8          -0.003845320    0.023327248    0.081352390
      6        8          -0.047002117    0.070896519   -0.024414891
      7        8           0.052153721    0.065507578   -0.023370734
      8       35          -0.032472569   -0.001268070   -0.006541910
      9       35           0.001827811    0.000179932   -0.028626613
     10       35           0.034501309    0.005865475   -0.006223321
     11       35          -0.000673239    0.240262713    0.000442855
 -------------------------------------------------------------------
 Cartesian Forces:  Max     0.240262713 RMS     0.074924024

 GradGradGradGradGradGradGradGradGradGradGradGradGradGradGradGradGradGrad
 Berny optimization.
 Using GEDIIS/GDIIS optimizer.
 FormGI is forming the generalized inverse of G from B-inverse, IUseBI=4.
 Internal  Forces:  Max     0.240247152 RMS     0.044629486
 Search for a local minimum.
 Step number   2 out of a maximum of   60
 All quantities printed in internal units (Hartrees-Bohrs-Radians)
 Mixed Optimization -- RFO/linear search
 Update second derivatives using D2CorX and points    1    2
 DE= -1.14D-01 DEPred=-1.14D-01 R= 9.98D-01
 TightC=F SS=  1.41D+00  RLast= 3.34D-01 DXNew= 5.0454D-01 1.0010D+00
 Trust test= 9.98D-01 RLast= 3.34D-01 DXMaxT set to 5.05D-01
 ITU=  1  0
 Use linear search instead of GDIIS.
 Linear search step of   0.597 exceeds DXMaxT=   0.505 but not scaled.
 Quartic linear search produced a step of  2.00000.
 Iteration  1 RMS(Cart)=  0.12701478 RMS(Int)=  0.02133742
 Iteration  2 RMS(Cart)=  0.02010075 RMS(Int)=  0.00520830
 Iteration  3 RMS(Cart)=  0.00008760 RMS(Int)=  0.00520789
 Iteration  4 RMS(Cart)=  0.00000103 RMS(Int)=  0.00520789
 Iteration  5 RMS(Cart)=  0.00000001 RMS(Int)=  0.00520789
 Variable       Old X    -DE/DX   Delta X   Delta X   Delta X     New X
                                 (Linear)    (Quad)   (Total)
    R1        3.87431   0.05855   0.22751   0.00000   0.22751   4.10182
    R2        3.85760   0.05174   0.19409   0.00000   0.19409   4.05169
    R3        4.64639   0.03261   0.10870   0.00000   0.10870   4.75509
    R4        4.63936   0.02864   0.09464   0.00000   0.09464   4.73400
    R5        4.65209   0.03467   0.12010   0.00000   0.12010   4.77219
    R6        3.92698   0.24025   0.33286   0.00000   0.33286   4.25984
    R7        2.50746  -0.07651  -0.12514   0.00000  -0.12514   2.38232
    R8        2.50821  -0.07586  -0.12364   0.00000  -0.12364   2.38456
    R9        2.50406  -0.08067  -0.13194   0.00000  -0.13194   2.37212
   R10        2.50535  -0.07874  -0.12935   0.00000  -0.12935   2.37600
    A1        1.55109  -0.01074  -0.03942   0.00000  -0.03927   1.51181
    A2        1.55975  -0.00412  -0.02210   0.00000  -0.02130   1.53845
    A3        1.58084   0.00364   0.02008   0.00000   0.02010   1.60094
    A4        1.59588   0.00735   0.05018   0.00000   0.05056   1.64644
    A5        1.58775   0.00480   0.03390   0.00000   0.03355   1.62130
    A6        1.58115   0.00460   0.02071   0.00000   0.02215   1.60330
    A7        1.58628   0.00900   0.03097   0.00000   0.03099   1.61727
    A8        1.56008  -0.00335  -0.02143   0.00000  -0.02142   1.53867
    A9        1.57146   0.00178   0.00134   0.00000   0.00101   1.57248
   A10        1.55434  -0.00592  -0.03292   0.00000  -0.03324   1.52110
   A11        1.56505  -0.00187  -0.01150   0.00000  -0.01129   1.55376
   A12        1.55620  -0.00492  -0.02918   0.00000  -0.02935   1.52686
   A13        1.96930   0.02196   0.11734   0.00000   0.10364   2.07294
   A14        1.95681   0.01678   0.09235   0.00000   0.07841   2.03522
   A15        1.91325   0.00715   0.00523   0.00000  -0.01360   1.89965
   A16        1.95352   0.01570   0.08577   0.00000   0.07451   2.02803
   A17        1.96226   0.01863   0.10325   0.00000   0.09214   2.05440
   A18        1.91363   0.00930   0.00600   0.00000  -0.00967   1.90397
   A19        3.13737  -0.00174  -0.00845   0.00000  -0.00829   3.12908
   A20        3.13192  -0.00710  -0.01934   0.00000  -0.01917   3.11275
   A21        3.15563   0.00323   0.02808   0.00000   0.02926   3.18489
   A22        3.15205   0.00240   0.02091   0.00000   0.02094   3.17299
   A23        3.14794   0.00157   0.01270   0.00000   0.01305   3.16099
   A24        3.11455  -0.00919  -0.05408   0.00000  -0.05367   3.06088
    D1       -1.40261   0.02009   0.07970   0.00000   0.08323  -1.31938
    D2        2.71007  -0.01982  -0.07250   0.00000  -0.07464   2.63544
    D3       -2.99058   0.01509   0.04536   0.00000   0.04787  -2.94271
    D4        1.12210  -0.02482  -0.10685   0.00000  -0.11000   1.01211
    D5        1.73263   0.01852   0.06701   0.00000   0.07018   1.80281
    D6       -0.43787  -0.02139  -0.08520   0.00000  -0.08769  -0.52555
    D7        0.17805   0.02428   0.09944   0.00000   0.10155   0.27960
    D8       -1.99245  -0.01563  -0.05277   0.00000  -0.05632  -2.04877
    D9        1.03161   0.02268   0.09241   0.00000   0.09499   1.12660
   D10       -1.13140  -0.01591  -0.04482   0.00000  -0.04713  -1.17853
   D11        2.59102   0.01828   0.06964   0.00000   0.07094   2.66196
   D12        0.42801  -0.02032  -0.06759   0.00000  -0.07118   0.35683
   D13       -0.56408   0.01553   0.04263   0.00000   0.04599  -0.51809
   D14       -2.72709  -0.02307  -0.09460   0.00000  -0.09613  -2.82322
   D15       -2.12044   0.02029   0.07150   0.00000   0.07405  -2.04639
   D16        1.99974  -0.01831  -0.06573   0.00000  -0.06807   1.93166
         Item               Value     Threshold  Converged?
 Maximum Force            0.240247     0.000450     NO 
 RMS     Force            0.044629     0.000300     NO 
 Maximum Displacement     0.385486     0.001800     NO 
 RMS     Displacement     0.134435     0.001200     NO 
 Predicted change in Energy=-1.043490D-01
 GradGradGradGradGradGradGradGradGradGradGradGradGradGradGradGradGradGrad

                          Input orientation:                          
 ---------------------------------------------------------------------
 Center     Atomic      Atomic             Coordinates (Angstroms)
 Number     Number       Type             X           Y           Z
 ---------------------------------------------------------------------
      1         78           0       -0.297822    0.384288   -0.052131
      2          7           0       -0.306894   -1.785960   -0.089431
      3          7           0       -0.302458    0.221157    2.085711
      4          8           0        0.760334   -2.401859    0.176988
      5          8           0       -0.854329   -2.331814   -1.086747
      6          8           0        0.711393   -0.307900    2.603308
      7          8           0       -1.334030   -0.243289    2.634361
      8         35           0       -2.809381    0.315763   -0.190212
      9         35           0       -0.244130    0.502573   -2.553887
     10         35           0        2.220198    0.565728   -0.115139
     11         35           0       -0.359153    2.636678    0.014589
 ---------------------------------------------------------------------
                    Distance matrix (angstroms):
                    1          2          3          4          5
     1  Pt   0.000000
     2  N    2.170587   0.000000
     3  N    2.144063   2.959693   0.000000
     4  O    2.989115   1.260669   3.413644   0.000000
     5  O    2.959281   1.261856   4.109345   2.051602   0.000000
     6  O    2.923867   3.236111   1.255270   3.205322   4.490459
     7  O    2.947002   3.294523   1.257325   3.883873   4.294030
     8  Br   2.516285   3.269532   3.387247   4.501464   3.411109
     9  Br   2.505126   3.363758   4.648491   4.111248   3.249399
    10  Br   2.525335   3.452143   3.365452   3.320108   4.335031
    11  Br   2.254213   4.424170   3.182374   5.163960   5.113126
                    6          7          8          9         10
     6  O    0.000000
     7  O    2.046679   0.000000
     8  Br   4.537462   3.235338   0.000000
     9  Br   5.307217   5.353700   3.493189   0.000000
    10  Br   3.229501   4.565830   5.036347   3.467621   0.000000
    11  Br   4.064244   4.013453   3.381155   3.341363   3.310395
                   11
    11  Br   0.000000
 Stoichiometry    Br4N2O4Pt(2-)
 Framework group  C1[X(Br4N2O4Pt)]
 Deg. of freedom    27
 Full point group                 C1      NOp   1
 Largest Abelian subgroup         C1      NOp   1
 Largest concise Abelian subgroup C1      NOp   1
                         Standard orientation:                         
 ---------------------------------------------------------------------
 Center     Atomic      Atomic             Coordinates (Angstroms)
 Number     Number       Type             X           Y           Z
 ---------------------------------------------------------------------
      1         78           0        0.004532   -0.167997   -0.008109
      2          7           0        0.087197   -1.011966    1.989973
      3          7           0       -0.139656   -2.186222   -0.717322
      4          8           0       -0.975762   -1.447936    2.508950
      5          8           0        0.722662   -0.350953    2.856879
      6          8           0       -1.170353   -2.819239   -0.381682
      7          8           0        0.864300   -2.929433   -0.573875
      8         35           0        2.520405   -0.202197   -0.038231
      9         35           0        0.127523    2.166965    0.891047
     10         35           0       -2.506973    0.095812   -0.000104
     11         35           0       -0.012756    0.678608   -2.097233
 ---------------------------------------------------------------------
 Rotational constants (GHZ):      0.3351092      0.2859469      0.2726277
 Basis read from rwf:  (5D, 7F)
 Pseudo-potential data read from rwf file.
 There are   254 symmetry adapted cartesian basis functions of A   symmetry.
 There are   234 symmetry adapted basis functions of A   symmetry.
   234 basis functions,   513 primitive gaussians,   254 cartesian basis functions
   103 alpha electrons      103 beta electrons
       nuclear repulsion energy      2868.6839348401 Hartrees.
 NAtoms=   11 NActive=   11 NUniq=   11 SFac= 1.00D+00 NAtFMM=   60 NAOKFM=F Big=F
 Integral buffers will be    131072 words long.
 Raffenetti 2 integral format.
 Two-electron integral symmetry is turned on.
 ------------------------------------------------------------------------------
 Polarizable Continuum Model (PCM)
 =================================
 Model                : PCM (using non-symmetric T matrix).
 Atomic radii         : UFF (Universal Force Field).
 Polarization charges : Total charges.
 Charge compensation  : None.
 Solution method      : On-the-fly selection.
 Cavity type          : Scaled VdW (van der Waals Surface) (Alpha=1.100).
 Cavity algorithm     : GePol (No added spheres)
                        Default sphere list used, NSphG=   11.
                        Lebedev-Laikov grids with approx.  5.0 points / Ang**2.
                        Smoothing algorithm: Karplus/York (Gamma=1.0000).
                        Polarization charges: spherical gaussians, with
                                              point-specific exponents (IZeta= 3).
                        Self-potential: point-specific (ISelfS= 7).
                        Self-field    : sphere-specific E.n sum rule (ISelfD= 2).
 1st derivatives      : Analytical E(r).r(x)/FMM algorithm (CHGder, D1EAlg=3).
                        Cavity 1st derivative terms included.
 Solvent              : Water, Eps=  78.355300 Eps(inf)=   1.777849
 ------------------------------------------------------------------------------
 Spheres list:
 ISph  on   Nord     Re0    Alpha      Xe            Ye            Ze
    1  Pt      1    1.3770  1.100      0.004532     -0.167997     -0.008109
    2   N      2    1.8300  1.100      0.087197     -1.011966      1.989973
    3   N      3    1.8300  1.100     -0.139656     -2.186222     -0.717322
    4   O      4    1.7500  1.100     -0.975762     -1.447936      2.508950
    5   O      5    1.7500  1.100      0.722662     -0.350953      2.856879
    6   O      6    1.7500  1.100     -1.170353     -2.819239     -0.381682
    7   O      7    1.7500  1.100      0.864300     -2.929433     -0.573875
    8  Br      8    2.0945  1.100      2.520405     -0.202197     -0.038231
    9  Br      9    2.0945  1.100      0.127523      2.166965      0.891047
   10  Br     10    2.0945  1.100     -2.506973      0.095812     -0.000104
   11  Br     11    2.0945  1.100     -0.012756      0.678608     -2.097233
 ------------------------------------------------------------------------------
 One-electron integrals computed using PRISM.
   1 Symmetry operations used in ECPInt.
 ECPInt:  NShTT=    4278 NPrTT=   21985 LenC2=    3868 LenP2D=   13331.
 LDataN:  DoStor=T MaxTD1= 6 Len=  172
 NBasis=   234 RedAO= T EigKep=  3.65D-03  NBF=   234
 NBsUse=   234 1.00D-06 EigRej= -1.00D+00 NBFU=   234
 Defaulting to unpruned grid for atomic number  78.
 Initial guess from the checkpoint file:  "/home/scr/diego/Gau-12771.chk"
 B after Tr=     0.000000    0.000000    0.000000
         Rot=    0.989562   -0.139009   -0.036885   -0.009108 Ang= -16.57 deg.
 ExpMin= 2.90D-02 ExpMax= 1.13D+05 ExpMxC= 1.70D+04 IAcc=3 IRadAn=         5 AccDes= 0.00D+00
 Harris functional with IExCor=  402 and IRadAn=       5 diagonalized for initial guess.
 HarFok:  IExCor=  402 AccDes= 0.00D+00 IRadAn=         5 IDoV= 1 UseB2=F ITyADJ=14
 ICtDFT=  3500011 ScaDFX=  1.000000  1.000000  1.000000  1.000000
 Defaulting to unpruned grid for atomic number  78.
 Defaulting to unpruned grid for atomic number  78.
 Defaulting to unpruned grid for atomic number  78.
 Defaulting to unpruned grid for atomic number  78.
 Defaulting to unpruned grid for atomic number  78.
 Defaulting to unpruned grid for atomic number  78.
 Defaulting to unpruned grid for atomic number  78.
 Defaulting to unpruned grid for atomic number  78.
 FoFCou: FMM=F IPFlag=           0 FMFlag=      100000 FMFlg1=           0
         NFxFlg=           0 DoJE=T BraDBF=F KetDBF=T FulRan=T
         wScrn=  0.000000 ICntrl=     500 IOpCl=  0 I1Cent=   200000004 NGrid=           0
         NMat0=    1 NMatS0=      1 NMatT0=    0 NMatD0=    1 NMtDS0=    0 NMtDT0=    0
 Petite list used in FoFCou.
 Keep R1 ints in memory in canonical form, NReq=386507822.
 Requested convergence on RMS density matrix=1.00D-08 within 128 cycles.
 Requested convergence on MAX density matrix=1.00D-06.
 Requested convergence on             energy=1.00D-06.
 No special actions if energy rises.
 Defaulting to unpruned grid for atomic number  78.
 Defaulting to unpruned grid for atomic number  78.
 Defaulting to unpruned grid for atomic number  78.
 Defaulting to unpruned grid for atomic number  78.
 Defaulting to unpruned grid for atomic number  78.
 Defaulting to unpruned grid for atomic number  78.
 Defaulting to unpruned grid for atomic number  78.
 Defaulting to unpruned grid for atomic number  78.
 Inv3:  Mode=1 IEnd=     9388083.
 Iteration    1 A*A^-1 deviation from unit magnitude is 6.66D-15 for   1520.
 Iteration    1 A*A^-1 deviation from orthogonality  is 6.64D-15 for   1216    450.
 Iteration    1 A^-1*A deviation from unit magnitude is 7.44D-15 for   1683.
 Iteration    1 A^-1*A deviation from orthogonality  is 4.39D-09 for   1495   1491.
 Iteration    2 A*A^-1 deviation from unit magnitude is 9.10D-15 for    171.
 Iteration    2 A*A^-1 deviation from orthogonality  is 7.12D-15 for    694    268.
 Iteration    2 A^-1*A deviation from unit magnitude is 2.22D-15 for   1029.
 Iteration    2 A^-1*A deviation from orthogonality  is 7.63D-16 for   1240   1012.
 Error on total polarization charges =  0.01347
 SCF Done:  E(RB3LYP) =  -10824.9243503     A.U. after   15 cycles
            NFock= 15  Conv=0.94D-08     -V/T= 2.0090
   1 Symmetry operations used in ECPInt.
 ECPInt:  NShTT=    4278 NPrTT=   21985 LenC2=    3868 LenP2D=   13331.
 LDataN:  DoStor=T MaxTD1= 7 Len=  274
 D1PCM: PCM CHGder 1st derivatives, ID1Alg=3 FixD1E=F DoIter=F DoCFld=F I1PDM=0.
 Calling FoFJK, ICntrl=      2127 FMM=F ISym2X=0 I1Cent= 0 IOpClX= 0 NMat=1 NMatS=1 NMatT=0.
 Defaulting to unpruned grid for atomic number  78.
 Defaulting to unpruned grid for atomic number  78.
 Defaulting to unpruned grid for atomic number  78.
 Defaulting to unpruned grid for atomic number  78.
 Defaulting to unpruned grid for atomic number  78.
 Defaulting to unpruned grid for atomic number  78.
 Defaulting to unpruned grid for atomic number  78.
 Defaulting to unpruned grid for atomic number  78.
 ***** Axes restored to original set *****
 -------------------------------------------------------------------
 Center     Atomic                   Forces (Hartrees/Bohr)
 Number     Number              X              Y              Z
 -------------------------------------------------------------------
      1       78          -0.006402804   -0.064807062    0.010188909
      2        7           0.062741984   -0.068988289   -0.084925161
      3        7          -0.002326909   -0.114586651    0.061112617
      4        8          -0.014217444    0.030281334    0.046613487
      5        8          -0.039258644    0.029923733    0.027669943
      6        8           0.019508164    0.048605795   -0.026071787
      7        8          -0.017785186    0.050094854   -0.026563594
      8       35          -0.011750011   -0.000953537    0.000490498
      9       35           0.000204561   -0.002616950   -0.012502310
     10       35           0.011821899   -0.001926383    0.000252443
     11       35          -0.002535609    0.094973157    0.003734954
 -------------------------------------------------------------------
 Cartesian Forces:  Max     0.114586651 RMS     0.042660729

 GradGradGradGradGradGradGradGradGradGradGradGradGradGradGradGradGradGrad
 Berny optimization.
 Using GEDIIS/GDIIS optimizer.
 FormGI is forming the generalized inverse of G from B-inverse, IUseBI=4.
 Internal  Forces:  Max     0.095070877 RMS     0.021769229
 Search for a local minimum.
 Step number   3 out of a maximum of   60
 All quantities printed in internal units (Hartrees-Bohrs-Radians)
 Mixed Optimization -- RFO/linear search
 Update second derivatives using D2CorX and points    2    3
 ITU=  0  1  0
 Use linear search instead of GDIIS.
     Eigenvalues ---    0.00230   0.00230   0.02260   0.02387   0.08113
     Eigenvalues ---    0.08427   0.08959   0.09417   0.12622   0.13991
     Eigenvalues ---    0.16236   0.17286   0.18345   0.19509   0.19512
     Eigenvalues ---    0.19917   0.20378   0.24880   0.24997   0.25000
     Eigenvalues ---    0.25000   0.30370   0.49303   0.52948   0.52948
     Eigenvalues ---    0.53003   0.64410
 RFO step:  Lambda=-1.03802147D-01 EMin= 2.29999320D-03
 Quartic linear search produced a step of  0.58378.
 Iteration  1 RMS(Cart)=  0.08782855 RMS(Int)=  0.01656876
 Iteration  2 RMS(Cart)=  0.01587777 RMS(Int)=  0.00657147
 Iteration  3 RMS(Cart)=  0.00019707 RMS(Int)=  0.00656939
 Iteration  4 RMS(Cart)=  0.00000110 RMS(Int)=  0.00656939
 Iteration  5 RMS(Cart)=  0.00000001 RMS(Int)=  0.00656939
 Variable       Old X    -DE/DX   Delta X   Delta X   Delta X     New X
                                 (Linear)    (Quad)   (Total)
    R1        4.10182   0.00895   0.13281  -0.00273   0.13009   4.23190
    R2        4.05169   0.00965   0.11331   0.00466   0.11797   4.16966
    R3        4.75509   0.01173   0.06346   0.02772   0.09118   4.84627
    R4        4.73400   0.01237   0.05525   0.03421   0.08947   4.82347
    R5        4.77219   0.01164   0.07012   0.02621   0.09633   4.86852
    R6        4.25984   0.09507   0.19432   0.07191   0.26623   4.52608
    R7        2.38232  -0.01697  -0.07305  -0.00296  -0.07601   2.30631
    R8        2.38456  -0.01780  -0.07218  -0.00510  -0.07728   2.30728
    R9        2.37212  -0.01550  -0.07702   0.00232  -0.07471   2.29741
   R10        2.37600  -0.01551  -0.07551   0.00132  -0.07419   2.30181
    A1        1.51181  -0.00250  -0.02293  -0.00890  -0.03176   1.48006
    A2        1.53845   0.00137  -0.01243   0.00882  -0.00323   1.53522
    A3        1.60094  -0.00405   0.01174  -0.02263  -0.01089   1.59005
    A4        1.64644  -0.00400   0.02952  -0.03031  -0.00059   1.64586
    A5        1.62130  -0.00152   0.01959  -0.01512   0.00421   1.62551
    A6        1.60330   0.00010   0.01293  -0.00561   0.00781   1.61111
    A7        1.61727   0.00178   0.01809   0.00613   0.02422   1.64148
    A8        1.53867   0.00080  -0.01250   0.00896  -0.00358   1.53509
    A9        1.57248   0.00053   0.00059   0.00601   0.00646   1.57893
   A10        1.52110   0.00081  -0.01940   0.01239  -0.00713   1.51397
   A11        1.55376   0.00472  -0.00659   0.02494   0.01843   1.57219
   A12        1.52686   0.00213  -0.01713   0.01543  -0.00181   1.52505
   A13        2.07294  -0.02362   0.06050  -0.06496  -0.02270   2.05024
   A14        2.03522  -0.02016   0.04578  -0.04775  -0.02028   2.01494
   A15        1.89965   0.05293  -0.00794   0.26275   0.23458   2.13423
   A16        2.02803  -0.02129   0.04350  -0.04821  -0.02241   2.00561
   A17        2.05440  -0.02314   0.05379  -0.05720  -0.02105   2.03336
   A18        1.90397   0.05459  -0.00564   0.27398   0.24855   2.15251
   A19        3.12908  -0.00073  -0.00484  -0.00277  -0.00754   3.12154
   A20        3.11275  -0.00655  -0.01119  -0.03153  -0.04265   3.07010
   A21        3.18489  -0.00263   0.01708  -0.02149  -0.00381   3.18108
   A22        3.17299  -0.00188   0.01223  -0.01493  -0.00268   3.17031
   A23        3.16099  -0.00054   0.00762  -0.00538   0.00240   3.16339
   A24        3.06088   0.00138  -0.03133   0.01994  -0.01126   3.04962
    D1       -1.31938   0.01667   0.04859   0.14533   0.19615  -1.12323
    D2        2.63544  -0.01797  -0.04357  -0.15416  -0.19940   2.43604
    D3       -2.94271   0.01819   0.02795   0.16071   0.19047  -2.75224
    D4        1.01211  -0.01644  -0.06422  -0.13879  -0.20508   0.80702
    D5        1.80281   0.01722   0.04097   0.15071   0.19375   1.99657
    D6       -0.52555  -0.01742  -0.05119  -0.14878  -0.20180  -0.72735
    D7        0.27960   0.01681   0.05928   0.14077   0.20172   0.48132
    D8       -2.04877  -0.01782  -0.03288  -0.15873  -0.19383  -2.24260
    D9        1.12660   0.01645   0.05545   0.14543   0.20294   1.32954
   D10       -1.17853  -0.02021  -0.02751  -0.17311  -0.20259  -1.38112
   D11        2.66196   0.01778   0.04142   0.15473   0.19761   2.85957
   D12        0.35683  -0.01887  -0.04155  -0.16381  -0.20792   0.14892
   D13       -0.51809   0.02053   0.02685   0.17574   0.20508  -0.31301
   D14       -2.82322  -0.01613  -0.05612  -0.14280  -0.20045  -3.02367
   D15       -2.04639   0.01833   0.04323   0.16036   0.20562  -1.84077
   D16        1.93166  -0.01832  -0.03974  -0.15818  -0.19990   1.73176
         Item               Value     Threshold  Converged?
 Maximum Force            0.095071     0.000450     NO 
 RMS     Force            0.021769     0.000300     NO 
 Maximum Displacement     0.265141     0.001800     NO 
 RMS     Displacement     0.090441     0.001200     NO 
 Predicted change in Energy=-8.888226D-02
 GradGradGradGradGradGradGradGradGradGradGradGradGradGradGradGradGradGrad

                          Input orientation:                          
 ---------------------------------------------------------------------
 Center     Atomic      Atomic             Coordinates (Angstroms)
 Number     Number       Type             X           Y           Z
 ---------------------------------------------------------------------
      1         78           0       -0.284077    0.379152   -0.070259
      2          7           0       -0.258113   -1.857875   -0.170580
      3          7           0       -0.293185    0.080851    2.115954
      4          8           0        0.722081   -2.430191    0.277926
      5          8           0       -0.962532   -2.352403   -1.036595
      6          8           0        0.778456   -0.237239    2.593886
      7          8           0       -1.363385   -0.208408    2.620618
      8         35           0       -2.840608    0.265688   -0.237942
      9         35           0       -0.215760    0.543321   -2.616526
     10         35           0        2.281520    0.605176   -0.133533
     11         35           0       -0.380669    2.767294    0.084463
 ---------------------------------------------------------------------
                    Distance matrix (angstroms):
                    1          2          3          4          5
     1  Pt   0.000000
     2  N    2.239426   0.000000
     3  N    2.206488   2.998020   0.000000
     4  O    3.004329   1.220444   3.273292   0.000000
     5  O    2.975819   1.220961   4.038231   2.138209   0.000000
     6  O    2.933697   3.367968   1.215735   3.189967   4.548115
     7  O    2.958200   3.425369   1.218066   3.843656   4.258239
     8  Br   2.564536   3.344150   3.473378   4.497403   3.319551
     9  Br   2.552469   3.427854   4.755654   4.254312   3.382168
    10  Br   2.576310   3.538040   3.458932   3.437238   4.481815
    11  Br   2.395097   4.633816   3.369211   5.316703   5.273199
                    6          7          8          9         10
     6  O    0.000000
     7  O    2.142201   0.000000
     8  Br   4.622749   3.252433   0.000000
     9  Br   5.361542   5.413854   3.553108   0.000000
    10  Br   3.226094   4.640323   5.134428   3.522142   0.000000
    11  Br   4.082645   4.031453   3.523248   3.502655   3.436498
                   11
    11  Br   0.000000
 Stoichiometry    Br4N2O4Pt(2-)
 Framework group  C1[X(Br4N2O4Pt)]
 Deg. of freedom    27
 Full point group                 C1      NOp   1
 Largest Abelian subgroup         C1      NOp   1
 Largest concise Abelian subgroup C1      NOp   1
                         Standard orientation:                         
 ---------------------------------------------------------------------
 Center     Atomic      Atomic             Coordinates (Angstroms)
 Number     Number       Type             X           Y           Z
 ---------------------------------------------------------------------
      1         78           0        0.004039   -0.169636   -0.009146
      2          7           0        0.216823   -1.257515    1.936688
      3          7           0       -0.127224   -2.187237   -0.892689
      4          8           0       -0.731200   -1.927194    2.313871
      5          8           0        1.034069   -0.788655    2.713234
      6          8           0       -1.194442   -2.747437   -0.733832
      7          8           0        0.924315   -2.782075   -1.047994
      8         35           0        2.563882   -0.118662   -0.155598
      9         35           0        0.118593    2.084835    1.182213
     10         35           0       -2.558330    0.035156    0.163200
     11         35           0       -0.158550    0.950323   -2.120009
 ---------------------------------------------------------------------
 Rotational constants (GHZ):      0.3187343      0.2712353      0.2624976
 Basis read from rwf:  (5D, 7F)
 Pseudo-potential data read from rwf file.
 There are   254 symmetry adapted cartesian basis functions of A   symmetry.
 There are   234 symmetry adapted basis functions of A   symmetry.
   234 basis functions,   513 primitive gaussians,   254 cartesian basis functions
   103 alpha electrons      103 beta electrons
       nuclear repulsion energy      2802.2018874595 Hartrees.
 NAtoms=   11 NActive=   11 NUniq=   11 SFac= 1.00D+00 NAtFMM=   60 NAOKFM=F Big=F
 Integral buffers will be    131072 words long.
 Raffenetti 2 integral format.
 Two-electron integral symmetry is turned on.
 ------------------------------------------------------------------------------
 Polarizable Continuum Model (PCM)
 =================================
 Model                : PCM (using non-symmetric T matrix).
 Atomic radii         : UFF (Universal Force Field).
 Polarization charges : Total charges.
 Charge compensation  : None.
 Solution method      : On-the-fly selection.
 Cavity type          : Scaled VdW (van der Waals Surface) (Alpha=1.100).
 Cavity algorithm     : GePol (No added spheres)
                        Default sphere list used, NSphG=   11.
                        Lebedev-Laikov grids with approx.  5.0 points / Ang**2.
                        Smoothing algorithm: Karplus/York (Gamma=1.0000).
                        Polarization charges: spherical gaussians, with
[...]
 Vibration     9          0.608              1.937              3.176
 Vibration    10          0.609              1.933              3.102
 Vibration    11          0.618              1.904              2.683
 Vibration    12          0.627              1.875              2.400
 Vibration    13          0.627              1.874              2.389
 Vibration    14          0.631              1.862              2.288
 Vibration    15          0.643              1.823              2.030
 Vibration    16          0.662              1.765              1.741
 Vibration    17          0.671              1.739              1.635
 Vibration    18          0.705              1.639              1.319
 Vibration    19          0.709              1.626              1.287
 Vibration    20          0.956              1.036              0.453
 Vibration    21          0.964              1.021              0.441
                       Q            Log10(Q)             Ln(Q)
 Total Bot       0.410687D+10          9.613510         22.135926
 Total V=0       0.117529D+23         22.070144         50.818383
 Vib (Bot)       0.118301D-05         -5.927011        -13.647447
 Vib (Bot)    1  0.505941D+01          0.704100          1.621250
 Vib (Bot)    2  0.333817D+01          0.523508          1.205422
 Vib (Bot)    3  0.280621D+01          0.448120          1.031835
 Vib (Bot)    4  0.240461D+01          0.381044          0.877386
 Vib (Bot)    5  0.225934D+01          0.353983          0.815075
 Vib (Bot)    6  0.223075D+01          0.348451          0.802339
 Vib (Bot)    7  0.209798D+01          0.321801          0.740975
 Vib (Bot)    8  0.180848D+01          0.257314          0.592488
 Vib (Bot)    9  0.177312D+01          0.248739          0.572742
 Vib (Bot)   10  0.170446D+01          0.231587          0.533250
 Vib (Bot)   11  0.135945D+01          0.133365          0.307083
 Vib (Bot)   12  0.116213D+01          0.065255          0.150256
 Vib (Bot)   13  0.115453D+01          0.062404          0.143690
 Vib (Bot)   14  0.109036D+01          0.037571          0.086510
 Vib (Bot)   15  0.937900D+00         -0.027843         -0.064112
 Vib (Bot)   16  0.785757D+00         -0.104712         -0.241108
 Vib (Bot)   17  0.734149D+00         -0.134216         -0.309043
 Vib (Bot)   18  0.591116D+00         -0.228328         -0.525744
 Vib (Bot)   19  0.577677D+00         -0.238315         -0.548740
 Vib (Bot)   20  0.250242D+00         -0.601640         -1.385328
 Vib (Bot)   21  0.245470D+00         -0.610001         -1.404579
 Vib (V=0)       0.338549D+07          6.529622         15.035010
 Vib (V=0)    1  0.558406D+01          0.746950          1.719915
 Vib (V=0)    2  0.387540D+01          0.588317          1.354650
 Vib (V=0)    3  0.335041D+01          0.525097          1.209081
 Vib (V=0)    4  0.295604D+01          0.470710          1.083850
 Vib (V=0)    5  0.281401D+01          0.449326          1.034610
 Vib (V=0)    6  0.278610D+01          0.444997          1.024643
 Vib (V=0)    7  0.265674D+01          0.424349          0.977099
 Vib (V=0)    8  0.237633D+01          0.375906          0.865557
 Vib (V=0)    9  0.234227D+01          0.369637          0.851121
 Vib (V=0)   10  0.227629D+01          0.357227          0.822545
 Vib (V=0)   11  0.194849D+01          0.289698          0.667053
 Vib (V=0)   12  0.176513D+01          0.246776          0.568223
 Vib (V=0)   13  0.175815D+01          0.245055          0.564259
 Vib (V=0)   14  0.169954D+01          0.230331          0.530356
 Vib (V=0)   15  0.156285D+01          0.193918          0.446513
 Vib (V=0)   16  0.143135D+01          0.155746          0.358618
 Vib (V=0)   17  0.138824D+01          0.142465          0.328039
 Vib (V=0)   18  0.127422D+01          0.105245          0.242335
 Vib (V=0)   19  0.126401D+01          0.101750          0.234289
 Vib (V=0)   20  0.105913D+01          0.024947          0.057443
 Vib (V=0)   21  0.105701D+01          0.024077          0.055440
 Electronic      0.100000D+01          0.000000          0.000000
 Translational   0.581467D+09          8.764525         20.181064
 Rotational      0.597031D+07          6.775997         15.602309
 ***** Axes restored to original set *****
 -------------------------------------------------------------------
 Center     Atomic                   Forces (Hartrees/Bohr)
 Number     Number              X              Y              Z
 -------------------------------------------------------------------
      1       78           0.000219453    0.000050625    0.000086387
      2        7          -0.000208278    0.000145587    0.000255239
      3        7          -0.000312915    0.000137321    0.000111357
      4        8          -0.000082944    0.000047839    0.000122395
      5        8           0.000548544    0.000076759   -0.000231871
      6        8           0.000025236   -0.000130947    0.000099605
      7        8           0.000071131   -0.000130137   -0.000163455
      8       35          -0.000156899   -0.000315646   -0.000022587
      9       35          -0.000015086   -0.000145903   -0.000286074
     10       35          -0.000159316   -0.000079247   -0.000102912
     11       35           0.000071074    0.000343749    0.000131918
 -------------------------------------------------------------------
 Cartesian Forces:  Max     0.000548544 RMS     0.000189831
 FormGI is forming the generalized inverse of G from B-inverse, IUseBI=4.

 GradGradGradGradGradGradGradGradGradGradGradGradGradGradGradGradGradGrad
 Berny optimization.
 Internal  Forces:  Max     0.000426010 RMS     0.000186230
 Search for a local minimum.
 Step number   1 out of a maximum of    2
 All quantities printed in internal units (Hartrees-Bohrs-Radians)
 Second derivative matrix not updated -- analytic derivatives used.
 ITU=  0
     Eigenvalues ---    0.00153   0.00495   0.04252   0.04434   0.05624
     Eigenvalues ---    0.05647   0.06157   0.06733   0.06811   0.07365
     Eigenvalues ---    0.07733   0.08542   0.08671   0.08995   0.09468
     Eigenvalues ---    0.10205   0.11974   0.12603   0.15392   0.15900
     Eigenvalues ---    0.21704   0.31309   0.33238   0.58879   0.59698
     Eigenvalues ---    0.84400   0.85087
 Angle between quadratic step and forces=  73.44 degrees.
 Linear search not attempted -- first point.
 Iteration  1 RMS(Cart)=  0.01151662 RMS(Int)=  0.00010192
 Iteration  2 RMS(Cart)=  0.00010607 RMS(Int)=  0.00000128
 Iteration  3 RMS(Cart)=  0.00000001 RMS(Int)=  0.00000128
 Variable       Old X    -DE/DX   Delta X   Delta X   Delta X     New X
                                 (Linear)    (Quad)   (Total)
    R1        3.99955  -0.00027   0.00000  -0.00125  -0.00125   3.99830
    R2        3.99973   0.00005   0.00000  -0.00043  -0.00043   3.99929
    R3        4.84163   0.00019   0.00000   0.00269   0.00269   4.84432
    R4        4.92698   0.00027   0.00000   0.00286   0.00286   4.92984
    R5        4.84255  -0.00016   0.00000  -0.00249  -0.00249   4.84006
    R6        4.93263   0.00035   0.00000   0.00483   0.00483   4.93745
    R7        2.29860   0.00011   0.00000  -0.00028  -0.00028   2.29832
    R8        2.29239   0.00043   0.00000   0.00054   0.00054   2.29292
    R9        2.29837   0.00017   0.00000   0.00046   0.00046   2.29883
   R10        2.29342  -0.00024   0.00000  -0.00058  -0.00058   2.29284
    A1        1.54894  -0.00023   0.00000  -0.00137  -0.00137   1.54757
    A2        1.55195  -0.00008   0.00000   0.00108   0.00108   1.55303
    A3        1.58202  -0.00009   0.00000  -0.00394  -0.00394   1.57808
    A4        1.57365  -0.00022   0.00000  -0.00194  -0.00193   1.57172
    A5        1.57506  -0.00013   0.00000  -0.00194  -0.00194   1.57311
    A6        1.55257   0.00020   0.00000   0.00078   0.00077   1.55334
    A7        1.58105  -0.00001   0.00000   0.00122   0.00122   1.58227
    A8        1.56268   0.00000   0.00000   0.00046   0.00046   1.56314
    A9        1.59346   0.00032   0.00000   0.00289   0.00289   1.59635
   A10        1.59271  -0.00008   0.00000   0.00062   0.00061   1.59332
   A11        1.57119   0.00034   0.00000   0.00411   0.00411   1.57530
   A12        1.56397  -0.00003   0.00000  -0.00205  -0.00205   1.56192
   A13        2.04187  -0.00006   0.00000   0.00111   0.00111   2.04297
   A14        2.07513  -0.00022   0.00000  -0.00198  -0.00198   2.07315
   A15        2.16615   0.00028   0.00000   0.00085   0.00084   2.16699
   A16        2.04374   0.00005   0.00000  -0.00095  -0.00095   2.04279
   A17        2.07348  -0.00003   0.00000   0.00073   0.00073   2.07420
   A18        2.16592  -0.00002   0.00000   0.00021   0.00021   2.16613
   A19        3.12999  -0.00025   0.00000  -0.00015  -0.00015   3.12984
   A20        3.13096  -0.00032   0.00000  -0.00531  -0.00531   3.12565
   A21        3.12560  -0.00029   0.00000  -0.00085  -0.00086   3.12474
   A22        3.13784  -0.00025   0.00000  -0.00399  -0.00399   3.13384
   A23        3.13794  -0.00012   0.00000  -0.00140  -0.00140   3.13654
   A24        3.15521  -0.00008   0.00000   0.00113   0.00113   3.15634
    D1        0.67983  -0.00009   0.00000   0.02102   0.02101   0.70085
    D2       -2.45231   0.00001   0.00000   0.02396   0.02396  -2.42835
    D3       -0.89564   0.00003   0.00000   0.02296   0.02296  -0.87268
    D4        2.25541   0.00013   0.00000   0.02590   0.02590   2.28131
    D5       -2.45811   0.00003   0.00000   0.02241   0.02241  -2.43569
    D6        0.69294   0.00013   0.00000   0.02535   0.02536   0.71830
    D7        2.23234   0.00011   0.00000   0.02183   0.02183   2.25417
    D8       -0.89980   0.00021   0.00000   0.02477   0.02477  -0.87503
    D9        0.69031  -0.00014   0.00000  -0.01542  -0.01542   0.67489
   D10       -2.44076  -0.00010   0.00000  -0.01439  -0.01439  -2.45515
   D11        2.24215  -0.00021   0.00000  -0.01430  -0.01430   2.22785
   D12       -0.88891  -0.00017   0.00000  -0.01328  -0.01327  -0.90218
   D13       -0.88375   0.00008   0.00000  -0.01349  -0.01349  -0.89724
   D14        2.26838   0.00012   0.00000  -0.01246  -0.01246   2.25591
   D15       -2.44753   0.00011   0.00000  -0.01142  -0.01142  -2.45895
   D16        0.70459   0.00015   0.00000  -0.01040  -0.01040   0.69419
         Item               Value     Threshold  Converged?
 Maximum Force            0.000426     0.000450     YES
 RMS     Force            0.000186     0.000300     YES
 Maximum Displacement     0.044450     0.001800     NO 
 RMS     Displacement     0.011518     0.001200     NO 
 Predicted change in Energy=-1.455383D-05
 GradGradGradGradGradGradGradGradGradGradGradGradGradGradGradGradGradGrad

 1\1\GINC-NEQC17\Freq\RB3LYP\Gen\Br4N2O4Pt1(2-)\DIEGO\18-Aug-2021\0\\#N
  Geom=AllCheck Guess=TCheck SCRF=Check GenChk RB3LYP/ChkBas Freq\\Estr
 utura 49\\-2,1\Pt,-0.3397320665,0.2787616323,-0.0869017677\N,-0.128471
 9348,-1.8149479007,-0.3131819761\N,-0.1580468648,0.024088748,2.0064158
 155\O,-0.6784303598,-2.5178038143,0.5133117889\O,0.5311534929,-2.24102
 04596,-1.2377996371\O,0.6548810917,-0.792034601,2.3967307902\O,-0.8674
 457127,0.681865379,2.7392001779\Br,-2.8756903916,-0.0442876574,0.08286
 23639\Br,-0.5702471086,0.5640582882,-2.6682180894\Br,2.2037599363,0.55
 788808,-0.2264755874\Br,-0.588001692,2.8587981054,0.2214663313\\Versio
 n=EM64L-G09RevD.01\State=1-A\HF=-10825.0276138\RMSD=4.940e-09\RMSF=1.8
 98e-04\ZeroPoint=0.0270816\Thermal=0.0426819\Dipole=-0.0358589,0.22012
 83,-0.1848928\DipoleDeriv=1.357048,0.12261,0.0879345,0.1341474,1.05805
 51,-0.0050097,0.1026981,-0.0014013,1.0137982,1.0992978,-0.149349,-0.83
 45369,-0.1158133,3.1604295,0.1343931,-0.8749138,0.0567077,1.5779584,1.
 4203598,-0.8480876,0.0216268,-0.9085058,1.2469807,-0.1840321,0.0331438
 ,-0.12379,3.1626775,-0.5338154,-0.2828001,0.3301707,-0.1521261,-2.1098
 326,0.2561852,0.3631905,0.4788593,-0.7349001,-0.6645732,0.5096421,0.49
 67998,0.3544739,-1.871617,-0.5000412,0.4800013,-0.602343,-0.9818263,-0
 .8269666,0.5007037,-0.5294007,0.5418338,-0.7663554,0.5849232,-0.364457
 ,0.4060627,-1.7953873,-0.6698716,0.3332865,0.4283574,0.3471542,-0.6287
 58,-0.2981161,0.2697601,-0.2310631,-2.2079595,-1.4120749,-0.0996924,0.
 0330961,-0.226243,-0.1263797,-0.0034974,0.0942086,0.0252341,-0.1202492
 ,-0.1747937,-0.0073533,-0.1342918,-0.0187296,-0.2397733,0.1237077,-0.1
 292974,0.1944495,-1.5696727,-1.3998525,-0.20325,0.1118455,-0.1125312,-
 0.1335002,0.0215041,0.0334348,-0.0133538,-0.1121144,-0.1947577,0.12429
 01,-0.0116015,0.1563397,-1.5892492,-0.1300169,-0.007769,-0.1893619,-0.
 2323247\Polar=254.3581115,-3.4483338,236.7037514,-7.6734273,-1.096518,
 238.3211771\PG=C01 [X(Br4N2O4Pt1)]\NImag=0\\0.24368610,-0.00336222,0.2
 0833825,-0.00924924,-0.01031025,0.20725285,-0.04852024,0.00355148,-0.0
 1332513,0.40760192,0.00307255,-0.06415506,0.00230995,0.01436504,0.5545
 1100,-0.01366895,0.00150152,-0.03616946,-0.36031862,-0.03850794,0.6791
 9581,-0.04323065,-0.01302133,-0.00393876,-0.00244090,-0.00619257,0.005
 12629,0.54796573,-0.01336994,-0.04447738,0.00935800,0.00266127,0.00418
 197,-0.01349250,-0.38068484,0.52918131,-0.00483824,0.01021168,-0.06134
 194,0.00020761,-0.02663748,-0.00542396,-0.05648535,0.03783787,0.562557
 21,0.00844466,-0.00280872,0.00724468,-0.15580684,-0.12163291,0.1538311
 8,0.00017716,-0.00018277,0.00126793,0.18425234,-0.01158841,-0.01208538
 ,0.01720806,-0.12880904,-0.30052937,0.19676895,0.00275100,-0.00336516,
 0.00903364,0.14556953,0.27950003,0.00793727,0.00465260,0.00217203,0.15
 497157,0.18874188,-0.28498385,-0.00623155,0.00490694,-0.00471191,-0.23
 513606,-0.22257279,0.37678003,0.00514647,0.00286988,0.01259107,-0.2068
 7451,0.10481998,0.21615708,0.00099546,-0.00076800,-0.00198597,-0.03359
 065,-0.00804192,0.07666981,0.23606037,0.01237449,-0.00169817,-0.018531
 73,0.11061236,-0.19320383,-0.15233953,0.00175129,-0.00209020,0.0075083
 3,-0.02140206,0.04665957,0.02960661,-0.10175436,0.16044236,0.01167352,
 -0.00472295,-0.00353830,0.21613050,-0.14410851,-0.35645055,-0.00037523
 ,0.00125589,0.00314127,0.07754288,0.01067788,-0.09137257,-0.30135465,0
 .13929883,0.45107584,0.00136649,0.01174547,-0.00397492,0.00062510,0.00
 443722,-0.00116853,-0.27845609,0.22648093,-0.11319089,-0.00124187,-0.0
 0312968,0.00107949,-0.00000763,-0.00150139,-0.00067954,0.34311385,0.01
 252078,0.00136402,0.00416541,-0.00425367,-0.00832287,0.00470914,0.2280
 3643,-0.28148503,0.11795585,-0.00047983,0.00330359,-0.00841732,0.00132
 994,0.00187024,-0.00090788,-0.31667951,0.34229180,-0.01474620,0.014863
 27,-0.00389170,-0.00051471,0.00769034,-0.00001768,-0.12134682,0.124308
 99,-0.18178514,-0.00168522,-0.00510558,0.00003006,0.00042737,-0.002967
 06,-0.00098753,0.10666393,-0.11017597,0.15342985,0.00438055,0.00914396
 ,0.00436656,0.00113896,-0.00022027,-0.00168827,-0.22975252,0.16450163,
 0.17322300,0.00016368,-0.00044263,0.00175737,-0.00052467,0.00006499,0.
 00022422,-0.06439312,0.08059249,0.03034258,0.28983510,0.00812795,0.005
 68417,-0.00423710,-0.00033680,0.00063838,0.00170212,0.16410279,-0.2063
 1548,-0.15719104,-0.00051611,-0.00014621,-0.00089981,0.00007341,0.0002
 2124,0.00009218,0.08169355,-0.05838557,-0.03038302,-0.25185315,0.26024
 617,0.01628825,-0.01613403,-0.01021260,-0.00024415,0.00857358,0.000190
 24,0.18007085,-0.16376484,-0.31845541,-0.00079925,-0.00363178,0.000857
 08,0.00079312,-0.00295039,-0.00055974,0.01395138,-0.01451433,0.0447183
 7,-0.20697048,0.18837588,0.29556361,-0.06737434,-0.00672998,0.00469683
 ,-0.00171187,0.00237827,-0.00069553,-0.00106434,0.00000440,-0.00156628
 ,-0.00221248,0.00198603,0.00083876,0.00004072,0.00020542,-0.00000416,0
 .00019312,-0.00014261,-0.00037927,-0.00129955,0.00010123,-0.00116879,0
 .08241860,-0.00778494,-0.01245040,0.00123827,0.00334289,-0.00504649,0.
 00207911,0.00155145,-0.00051531,-0.00014077,0.00462075,-0.00002902,-0.
 00146511,-0.00041215,0.00117541,-0.00053481,-0.00057480,0.00040343,-0.
 00017148,-0.00076333,0.00016712,-0.00020096,0.00692493,0.01613078,0.00
 524621,0.00016882,-0.01197691,0.00172574,0.00005869,-0.00056528,-0.002
 46422,-0.00240729,-0.00489529,-0.00074406,0.00067306,0.00017754,-0.000
 53855,0.00000436,0.00039554,0.00021014,0.00054928,0.00094493,-0.003493
 63,0.00116548,0.00145399,-0.00379123,-0.00098152,0.01429354,-0.0180134
 4,0.00048946,-0.00313571,-0.00083001,0.00115498,0.00166305,0.00684310,
 0.00058768,0.00140728,0.00040047,-0.00006621,-0.00056623,0.00006924,0.
 00032502,-0.00218849,-0.00106050,-0.00023690,-0.00013494,-0.00031746,-
 0.00081418,-0.00264151,0.00002437,-0.00089986,0.00388776,0.01361572,0.
 00094464,-0.01545569,0.00360423,0.00328028,-0.00370478,-0.00002638,0.0
 0061257,0.00730749,-0.00127442,-0.00082534,0.00042121,0.00048757,-0.00
 048773,-0.00021257,0.00478124,-0.00012564,-0.00133279,0.00008806,-0.00
 101357,-0.00053942,0.00266808,-0.00127006,0.00081069,0.00119526,-0.000
 37471,0.01412489,-0.00255895,0.00410037,-0.05466628,0.00029880,0.00072
 521,-0.00133697,0.00094811,-0.00282688,0.02009823,-0.00030829,0.000201
 16,0.00062353,-0.00082601,0.00134555,-0.00056176,-0.00634681,0.0067341
 8,-0.01299033,0.00383790,-0.00268088,-0.01513090,0.00174986,0.00049363
 ,-0.00202285,0.00508811,-0.00631583,0.06897598,-0.06810580,-0.00542943
 ,0.00384845,-0.00037459,-0.00099113,-0.00005829,-0.00078360,-0.0007350
 6,0.00159996,0.00009575,-0.00038440,-0.00029577,-0.00005302,-0.0009367
 0,-0.00081342,-0.00039192,-0.00030173,0.00148764,0.00018144,-0.0001957
 3,0.00029646,-0.00923957,-0.00162389,0.00047382,-0.00120892,-0.0011048
 3,-0.00206753,0.08123551,-0.00461092,-0.01191473,-0.00013834,-0.002517
 07,-0.00483433,-0.00278680,0.00131128,-0.00132931,0.00122202,0.0003679
 9,0.00088591,0.00042828,-0.00331247,0.00058487,0.00109048,-0.00237887,
 0.00003538,0.00158902,-0.00056864,0.00048035,-0.00002175,-0.00157732,0
 .00236076,0.00004732,-0.00055068,-0.00059891,-0.00027487,0.00885418,0.
 01650460,0.00250795,0.00081128,-0.01168344,0.00062605,-0.00071675,-0.0
 0119021,0.00219233,0.00400399,-0.00505406,-0.00036231,-0.00003264,0.00
 052639,-0.00183202,-0.00058956,-0.00002161,0.00438169,-0.00045619,-0.0
 0019198,-0.00012693,-0.00083432,0.00089899,0.00051781,0.00007766,0.002
 54596,-0.00377574,-0.00083860,-0.00026532,-0.00460674,-0.00092768,0.01
 356765,-0.01777979,0.00355143,0.00087618,0.00719298,-0.00119117,0.0008
 2057,-0.00025335,0.00150469,0.00036095,-0.00068222,0.00215573,-0.00102
 465,-0.00126177,0.00026094,-0.00015563,0.00025257,-0.00038540,-0.00011
 437,0.00058760,-0.00038296,0.00042413,0.00022536,-0.00438104,-0.000511
 98,0.00047744,0.00036438,0.00018481,-0.00135527,0.00498252,0.00047792,
 0.01259647,0.00367600,-0.05314963,-0.00466650,-0.00189674,0.02046538,0
 .00039232,-0.00021807,-0.00109291,0.00147431,-0.00271054,-0.01461516,0
 .00453115,0.00568343,-0.01374893,-0.00692234,0.00003272,0.00025780,0.0
 0026344,0.00055851,-0.00205075,0.00160053,-0.00188031,-0.00300697,-0.0
 0047346,0.00038539,-0.00082011,-0.00150164,0.00284871,-0.00217460,-0.0
 0049718,-0.00647912,0.06993588,0.00140837,-0.00514231,-0.01594424,0.00
 044232,0.00187103,0.00675191,0.00250435,0.00081982,-0.00412899,-0.0008
 5148,-0.00321996,-0.00009832,-0.00010125,-0.00038541,-0.00112059,-0.00
 092593,0.00035782,0.00074114,-0.00147231,0.00489052,0.00067636,-0.0001
 9800,-0.00039402,-0.00035116,0.00039642,-0.00436919,-0.00272332,0.0001
 3542,-0.00022766,0.00086763,-0.00133791,0.00579937,0.01532961\\-0.0002
 1945,-0.00005063,-0.00008639,0.00020828,-0.00014559,-0.00025524,0.0003
 1292,-0.00013732,-0.00011136,0.00008294,-0.00004784,-0.00012239,-0.000
 54854,-0.00007676,0.00023187,-0.00002524,0.00013095,-0.00009961,-0.000
 07113,0.00013014,0.00016346,0.00015690,0.00031565,0.00002259,0.0000150
 9,0.00014590,0.00028607,0.00015932,0.00007925,0.00010291,-0.00007107,-
 0.00034375,-0.00013192\\\@


 It takes a long time to grow an old friend.
                            -- John Leonard
 Job cpu time:       0 days  0 hours 26 minutes 35.1 seconds.
 File lengths (MBytes):  RWF=    167 Int=      0 D2E=      0 Chk=      9 Scr=      1
 Normal termination of Gaussian 09 at Wed Aug 18 08:44:09 2021.
