 Entering Gaussian System, Link 0=g09
 Input=estrutura50_D2O.com
 Output=estrutura50_D2O.log
 Initial command:
 /home/scr/programs/g09/l1.exe "/home/scr/diego/Gau-17091.inp" -scrdir="/home/scr/diego/"
 Entering Link 1 = /home/scr/programs/g09/l1.exe PID=     17093.
  
 Copyright (c) 1988,1990,1992,1993,1995,1998,2003,2009,2013,
            Gaussian, Inc.  All Rights Reserved.
  
 This is part of the Gaussian(R) 09 program.  It is based on
 the Gaussian(R) 03 system (copyright 2003, Gaussian, Inc.),
 the Gaussian(R) 98 system (copyright 1998, Gaussian, Inc.),
 the Gaussian(R) 94 system (copyright 1995, Gaussian, Inc.),
 the Gaussian 92(TM) system (copyright 1992, Gaussian, Inc.),
 the Gaussian 90(TM) system (copyright 1990, Gaussian, Inc.),
 the Gaussian 88(TM) system (copyright 1988, Gaussian, Inc.),
 the Gaussian 86(TM) system (copyright 1986, Carnegie Mellon
 University), and the Gaussian 82(TM) system (copyright 1983,
 Carnegie Mellon University). Gaussian is a federally registered
 trademark of Gaussian, Inc.
  
 This software contains proprietary and confidential information,
 including trade secrets, belonging to Gaussian, Inc.
  
 This software is provided under written license and may be
 used, copied, transmitted, or stored only in accord with that
 written license.
  
 The following legend is applicable only to US Government
 contracts under FAR:
  
                    RESTRICTED RIGHTS LEGEND
  
 Use, reproduction and disclosure by the US Government is
 subject to restrictions as set forth in subparagraphs (a)
 and (c) of the Commercial Computer Software - Restricted
 Rights clause in FAR 52.227-19.
  
 Gaussian, Inc.
 340 Quinnipiac St., Bldg. 40, Wallingford CT 06492
  
  
 ---------------------------------------------------------------
 Warning -- This program may not be used in any manner that
 competes with the business of Gaussian, Inc. or will provide
 assistance to any competitor of Gaussian, Inc.  The licensee
 of this program is prohibited from giving any competitor of
 Gaussian, Inc. access to this program.  By using this program,
 the user acknowledges that Gaussian, Inc. is engaged in the
 business of creating and licensing software in the field of
 computational chemistry and represents and warrants to the
 licensee that it is not a competitor of Gaussian, Inc. and that
 it will not use this program in any manner prohibited above.
 ---------------------------------------------------------------
  

 Cite this work as:
 Gaussian 09, Revision D.01,
 M. J. Frisch, G. W. Trucks, H. B. Schlegel, G. E. Scuseria, 
 M. A. Robb, J. R. Cheeseman, G. Scalmani, V. Barone, B. Mennucci, 
 G. A. Petersson, H. Nakatsuji, M. Caricato, X. Li, H. P. Hratchian, 
 A. F. Izmaylov, J. Bloino, G. Zheng, J. L. Sonnenberg, M. Hada, 
 M. Ehara, K. Toyota, R. Fukuda, J. Hasegawa, M. Ishida, T. Nakajima, 
 Y. Honda, O. Kitao, H. Nakai, T. Vreven, J. A. Montgomery, Jr., 
 J. E. Peralta, F. Ogliaro, M. Bearpark, J. J. Heyd, E. Brothers, 
 K. N. Kudin, V. N. Staroverov, T. Keith, R. Kobayashi, J. Normand, 
 K. Raghavachari, A. Rendell, J. C. Burant, S. S. Iyengar, J. Tomasi, 
 M. Cossi, N. Rega, J. M. Millam, M. Klene, J. E. Knox, J. B. Cross, 
 V. Bakken, C. Adamo, J. Jaramillo, R. Gomperts, R. E. Stratmann, 
 O. Yazyev, A. J. Austin, R. Cammi, C. Pomelli, J. W. Ochterski, 
 R. L. Martin, K. Morokuma, V. G. Zakrzewski, G. A. Voth, 
 P. Salvador, J. J. Dannenberg, S. Dapprich, A. D. Daniels, 
 O. Farkas, J. B. Foresman, J. V. Ortiz, J. Cioslowski, 
 and D. J. Fox, Gaussian, Inc., Wallingford CT, 2013.
 
 ******************************************
 Gaussian 09:  EM64L-G09RevD.01 24-Apr-2013
                18-Aug-2021 
 ******************************************
 %mem=15gb
 %nproc=8
 Will use up to    8 processors via shared memory.
 ------------------------------------------------------------
 #b3lyp/gen pseudo=read opt freq=noraman scrf=(solvent=water)
 ------------------------------------------------------------
 1/14=-1,18=20,19=15,26=3,38=1/1,3;
 2/9=110,12=2,17=6,18=5,40=1/2;
 3/5=7,11=2,16=1,17=8,25=1,30=1,70=2201,71=1,72=1,74=-5/1,2,3;
 4//1;
 5/5=2,38=5,53=1/2;
 6/7=2,8=2,9=2,10=2,28=1/1;
 7//1,2,3,16;
 1/14=-1,18=20,19=15,26=3/3(2);
 2/9=110/2;
 99//99;
 2/9=110/2;
 3/5=7,6=1,11=2,16=1,17=8,25=1,30=1,70=2205,71=1,72=1,74=-5,82=7/1,2,3;
 4/5=5,16=3,69=1/1;
 5/5=2,38=5,53=1/2;
 7//1,2,3,16;
 1/14=-1,18=20,19=15,26=3/3(-5);
 2/9=110/2;
 6/7=2,8=2,9=2,10=2,19=2,28=1/1;
 99/9=1/99;
 ------------
 Estrutura 50
 ------------
 Symbolic Z-matrix:
 Charge = -2 Multiplicity = 1
 Pt                   -0.31955   0.33835   0. 
 Cl                   -0.31955   0.33835  -2.28 
 N                    -0.31955  -1.65165   0. 
 N                    -0.31955   0.33835   1.99 
 O                     0.95213  -2.10499   0.1641 
 O                    -0.81328  -2.10499  -1.18335 
 O                     0.74918  -0.37012   2.44333 
 O                    -1.46746  -0.23297   2.44333 
 Cl                   -2.30955   0.33835   0. 
 Cl                    1.67045   0.33835   0. 
 N                    -0.31955   2.32835   0. 
 O                    -1.31208   2.78168  -0.81177 
 O                    -0.5263    2.78168   1.26544 
 

 GradGradGradGradGradGradGradGradGradGradGradGradGradGradGradGradGradGrad
 Berny optimization.
 Initialization pass.
                           ----------------------------
                           !    Initial Parameters    !
                           ! (Angstroms and Degrees)  !
 --------------------------                            --------------------------
 ! Name  Definition              Value          Derivative Info.                !
 --------------------------------------------------------------------------------
 ! R1    R(1,2)                  2.28           estimate D2E/DX2                !
 ! R2    R(1,3)                  1.99           estimate D2E/DX2                !
 ! R3    R(1,4)                  1.99           estimate D2E/DX2                !
 ! R4    R(1,9)                  1.99           estimate D2E/DX2                !
 ! R5    R(1,10)                 1.99           estimate D2E/DX2                !
 ! R6    R(1,11)                 1.99           estimate D2E/DX2                !
 ! R7    R(3,5)                  1.36           estimate D2E/DX2                !
 ! R8    R(3,6)                  1.36           estimate D2E/DX2                !
 ! R9    R(4,7)                  1.36           estimate D2E/DX2                !
 ! R10   R(4,8)                  1.36           estimate D2E/DX2                !
 ! R11   R(11,12)                1.36           estimate D2E/DX2                !
 ! R12   R(11,13)                1.36           estimate D2E/DX2                !
 ! A1    A(2,1,3)               90.0            estimate D2E/DX2                !
 ! A2    A(2,1,9)               90.0            estimate D2E/DX2                !
 ! A3    A(2,1,10)              90.0            estimate D2E/DX2                !
 ! A4    A(2,1,11)              90.0            estimate D2E/DX2                !
 ! A5    A(3,1,4)               90.0            estimate D2E/DX2                !
 ! A6    A(3,1,9)               90.0            estimate D2E/DX2                !
 ! A7    A(3,1,10)              90.0            estimate D2E/DX2                !
 ! A8    A(4,1,9)               90.0            estimate D2E/DX2                !
 ! A9    A(4,1,10)              90.0            estimate D2E/DX2                !
 ! A10   A(4,1,11)              90.0            estimate D2E/DX2                !
 ! A11   A(9,1,11)              90.0            estimate D2E/DX2                !
 ! A12   A(10,1,11)             90.0            estimate D2E/DX2                !
 ! A13   A(1,3,5)              109.4712         estimate D2E/DX2                !
 ! A14   A(1,3,6)              109.4712         estimate D2E/DX2                !
 ! A15   A(5,3,6)              109.4713         estimate D2E/DX2                !
 ! A16   A(1,4,7)              109.4712         estimate D2E/DX2                !
 ! A17   A(1,4,8)              109.4712         estimate D2E/DX2                !
 ! A18   A(7,4,8)              109.4713         estimate D2E/DX2                !
 ! A19   A(1,11,12)            109.4712         estimate D2E/DX2                !
 ! A20   A(1,11,13)            109.4712         estimate D2E/DX2                !
 ! A21   A(12,11,13)           109.4713         estimate D2E/DX2                !
 ! A22   L(2,1,4,3,-1)         180.0            estimate D2E/DX2                !
 ! A23   L(3,1,11,2,-1)        180.0            estimate D2E/DX2                !
 ! A24   L(9,1,10,2,-1)        180.0            estimate D2E/DX2                !
 ! A25   L(2,1,4,3,-2)         180.0            estimate D2E/DX2                !
 ! A26   L(3,1,11,2,-2)        180.0            estimate D2E/DX2                !
 ! A27   L(9,1,10,2,-2)        180.0            estimate D2E/DX2                !
 ! D1    D(2,1,3,5)             97.3528         estimate D2E/DX2                !
 ! D2    D(2,1,3,6)            -22.6472         estimate D2E/DX2                !
 ! D3    D(4,1,3,5)            -82.6472         estimate D2E/DX2                !
 ! D4    D(4,1,3,6)            157.3528         estimate D2E/DX2                !
 ! D5    D(9,1,3,5)           -172.6472         estimate D2E/DX2                !
 ! D6    D(9,1,3,6)             67.3528         estimate D2E/DX2                !
 ! D7    D(10,1,3,5)             7.3528         estimate D2E/DX2                !
 ! D8    D(10,1,3,6)          -112.6472         estimate D2E/DX2                !
 ! D9    D(5,3,11,12)          148.0736         estimate D2E/DX2                !
 ! D10   D(5,3,11,13)          -91.9264         estimate D2E/DX2                !
 ! D11   D(6,3,11,12)           28.0736         estimate D2E/DX2                !
 ! D12   D(6,3,11,13)          148.0736         estimate D2E/DX2                !
 ! D13   D(3,1,4,7)             56.4594         estimate D2E/DX2                !
 ! D14   D(3,1,4,8)            -63.5406         estimate D2E/DX2                !
 ! D15   D(9,1,4,7)            146.4594         estimate D2E/DX2                !
 ! D16   D(9,1,4,8)             26.4594         estimate D2E/DX2                !
 ! D17   D(10,1,4,7)           -33.5406         estimate D2E/DX2                !
 ! D18   D(10,1,4,8)          -153.5406         estimate D2E/DX2                !
 ! D19   D(11,1,4,7)          -123.5406         estimate D2E/DX2                !
 ! D20   D(11,1,4,8)           116.4594         estimate D2E/DX2                !
 ! D21   D(2,1,11,12)           50.7208         estimate D2E/DX2                !
 ! D22   D(2,1,11,13)          170.7208         estimate D2E/DX2                !
 ! D23   D(4,1,11,12)         -129.2792         estimate D2E/DX2                !
 ! D24   D(4,1,11,13)           -9.2792         estimate D2E/DX2                !
 ! D25   D(9,1,11,12)          -39.2792         estimate D2E/DX2                !
 ! D26   D(9,1,11,13)           80.7208         estimate D2E/DX2                !
 ! D27   D(10,1,11,12)         140.7208         estimate D2E/DX2                !
 ! D28   D(10,1,11,13)         -99.2792         estimate D2E/DX2                !
 --------------------------------------------------------------------------------
 Trust Radius=3.00D-01 FncErr=1.00D-07 GrdErr=1.00D-06
 Number of steps in this run=     77 maximum allowed number of steps=    100.
 GradGradGradGradGradGradGradGradGradGradGradGradGradGradGradGradGradGrad

                          Input orientation:                          
 ---------------------------------------------------------------------
 Center     Atomic      Atomic             Coordinates (Angstroms)
 Number     Number       Type             X           Y           Z
 ---------------------------------------------------------------------
      1         78           0       -0.319549    0.338346    0.000000
      2         17           0       -0.319549    0.338346   -2.280000
      3          7           0       -0.319549   -1.651654    0.000000
      4          7           0       -0.319549    0.338346    1.990000
      5          8           0        0.952128   -2.104987    0.164097
      6          8           0       -0.813275   -2.104987   -1.183353
      7          8           0        0.749175   -0.370116    2.443333
      8          8           0       -1.467457   -0.232965    2.443333
      9         17           0       -2.309549    0.338346    0.000000
     10         17           0        1.670451    0.338346    0.000000
     11          7           0       -0.319549    2.328346    0.000000
     12          8           0       -1.312077    2.781679   -0.811774
     13          8           0       -0.526301    2.781679    1.265442
 ---------------------------------------------------------------------
                    Distance matrix (angstroms):
                    1          2          3          4          5
     1  Pt   0.000000
     2  Cl   2.280000   0.000000
     3  N    1.990000   3.026301   0.000000
     4  N    1.990000   4.270000   2.814285   0.000000
     5  O    2.759341   3.682478   1.360000   3.304687   0.000000
     6  O    2.759341   2.723284   1.360000   4.035320   2.220871
     7  O    2.759341   4.894279   2.958781   1.360000   2.871565
     8  O    2.759341   4.894279   3.049631   1.360000   3.814941
     9  Cl   1.990000   3.026301   2.814285   2.814285   4.078644
    10  Cl   1.990000   3.026301   2.814285   2.814285   2.552017
    11  N    1.990000   3.026301   3.980000   2.814285   4.615033
    12  O    2.759341   3.018390   4.615033   3.847717   5.473431
    13  O    2.759341   4.310775   4.615033   2.556874   5.222855
                    6          7          8          9         10
     6  O    0.000000
     7  O    4.313221   0.000000
     8  O    4.133433   2.220871   0.000000
     9  Cl   3.099844   3.978390   2.646770   0.000000
    10  Cl   3.679551   2.705650   4.017803   3.980000   0.000000
    11  N    4.615033   3.793909   3.721274   2.814285   2.814285
    12  O    4.926091   4.977780   4.439363   2.761123   3.940092
    13  O    5.473431   3.598344   3.370650   3.278901   3.520929
                   11         12         13
    11  N    0.000000
    12  O    1.360000   0.000000
    13  O    1.360000   2.220871   0.000000
 Stoichiometry    Cl3N3O6Pt(2-)
 Framework group  C1[X(Cl3N3O6Pt)]
 Deg. of freedom    33
 Full point group                 C1      NOp   1
 Largest Abelian subgroup         C1      NOp   1
 Largest concise Abelian subgroup C1      NOp   1
                         Standard orientation:                         
 ---------------------------------------------------------------------
 Center     Atomic      Atomic             Coordinates (Angstroms)
 Number     Number       Type             X           Y           Z
 ---------------------------------------------------------------------
      1         78           0       -0.039126   -0.044267   -0.044848
      2         17           0       -0.019563   -2.306329   -0.329619
      3          7           0        1.789677   -0.126677    0.735400
      4          7           0       -0.056201    1.930076    0.203701
      5          8           0        2.706140    0.167599   -0.225379
      6          8           0        2.021828   -1.377825    1.215333
      7          8           0        1.012245    2.476769   -0.435947
      8          8           0        0.012469    2.220562    1.530540
      9         17           0       -0.823529   -0.279378    1.768859
     10         17           0        0.745277    0.190844   -1.858556
     11          7           0       -1.867929    0.038142   -0.825097
     12          8           0       -2.668803   -0.865735   -0.199631
     13          8           0       -2.376894    1.287974   -0.656353
 ---------------------------------------------------------------------
 Rotational constants (GHZ):      0.6211692      0.5842890      0.4908897
 General basis read from cards:  (5D, 7F)
 ======================================================================================================
                                       Pseudopotential Parameters
 ======================================================================================================
  Center     Atomic      Valence      Angular      Power
  Number     Number     Electrons     Momentum     of R      Exponent        Coefficient   SO-Coeffient
 ======================================================================================================
    1         78           18
                                      G and up 
                                                     1      728.9394056       -0.16192680    0.00000000
                                                     2      320.6567800    -1320.28738520    0.00000000
                                                     2       52.8680174     -298.31781350    0.00000000
                                                     2       12.0280128      -87.58370650    0.00000000
                                                     2        3.5238913       -8.14932740    0.00000000
                                      S - G
                                                     0      409.4437358        2.73342180    0.00000000
                                                     1      274.5419231       59.70243290    0.00000000
                                                     2      127.5658570      891.45895500    0.00000000
                                                     2       32.9036631      368.44676560    0.00000000
                                                     2        5.0593880      238.02630900    0.00000000
                                                     2        4.1506556     -107.05564540    0.00000000
                                      P - G
                                                     0      466.1728892        1.88785680    0.00000000
                                                     1      120.7888259       76.01386290    0.00000000
                                                     2       36.4118791      343.55111160    0.00000000
                                                     2        5.6985408      119.49117860    0.00000000
                                      D - G
                                                     0      249.5650763        2.93436780    0.00000000
                                                     1      126.6678585       59.33065710    0.00000000
                                                     2       63.1430586      452.44451940    0.00000000
                                                     2       17.9059470      210.47694790    0.00000000
                                                     2        4.2239373       58.62541120    0.00000000
                                      F - G
                                                     0      121.8158799        3.95342530    0.00000000
                                                     1       60.8757030       53.85551820    0.00000000
                                                     2       31.4767147      247.43051330    0.00000000
                                                     2        9.8811751      127.81879760    0.00000000
                                                     2        2.7319874       15.37720460    0.00000000
    2         17
                                   No pseudopotential on this center.
    3          7
                                   No pseudopotential on this center.
    4          7
                                   No pseudopotential on this center.
    5          8
                                   No pseudopotential on this center.
    6          8
                                   No pseudopotential on this center.
    7          8
                                   No pseudopotential on this center.
    8          8
                                   No pseudopotential on this center.
    9         17
                                   No pseudopotential on this center.
   10         17
                                   No pseudopotential on this center.
   11          7
                                   No pseudopotential on this center.
   12          8
                                   No pseudopotential on this center.
   13          8
                                   No pseudopotential on this center.
 ======================================================================================================
 There are   216 symmetry adapted cartesian basis functions of A   symmetry.
 There are   202 symmetry adapted basis functions of A   symmetry.
   202 basis functions,   379 primitive gaussians,   216 cartesian basis functions
    70 alpha electrons       70 beta electrons
       nuclear repulsion energy      1605.7057634695 Hartrees.
 NAtoms=   13 NActive=   13 NUniq=   13 SFac= 1.00D+00 NAtFMM=   60 NAOKFM=F Big=F
 Integral buffers will be    131072 words long.
 Raffenetti 2 integral format.
 Two-electron integral symmetry is turned on.
 ------------------------------------------------------------------------------
 Polarizable Continuum Model (PCM)
 =================================
 Model                : PCM (using non-symmetric T matrix).
 Atomic radii         : UFF (Universal Force Field).
 Polarization charges : Total charges.
 Charge compensation  : None.
 Solution method      : On-the-fly selection.
 Cavity type          : Scaled VdW (van der Waals Surface) (Alpha=1.100).
 Cavity algorithm     : GePol (No added spheres)
                        Default sphere list used, NSphG=   13.
                        Lebedev-Laikov grids with approx.  5.0 points / Ang**2.
                        Smoothing algorithm: Karplus/York (Gamma=1.0000).
                        Polarization charges: spherical gaussians, with
                                              point-specific exponents (IZeta= 3).
                        Self-potential: point-specific (ISelfS= 7).
                        Self-field    : sphere-specific E.n sum rule (ISelfD= 2).
 1st derivatives      : Analytical E(r).r(x)/FMM algorithm (CHGder, D1EAlg=3).
                        Cavity 1st derivative terms included.
 Solvent              : Water, Eps=  78.355300 Eps(inf)=   1.777849
 ------------------------------------------------------------------------------
 Spheres list:
 ISph  on   Nord     Re0    Alpha      Xe            Ye            Ze
    1  Pt      1    1.3770  1.100     -0.039126     -0.044267     -0.044848
    2  Cl      2    1.9735  1.100     -0.019563     -2.306329     -0.329619
    3   N      3    1.8300  1.100      1.789677     -0.126677      0.735400
    4   N      4    1.8300  1.100     -0.056201      1.930076      0.203701
    5   O      5    1.7500  1.100      2.706140      0.167599     -0.225379
    6   O      6    1.7500  1.100      2.021828     -1.377825      1.215333
    7   O      7    1.7500  1.100      1.012245      2.476769     -0.435947
    8   O      8    1.7500  1.100      0.012469      2.220562      1.530540
    9  Cl      9    1.9735  1.100     -0.823529     -0.279378      1.768859
   10  Cl     10    1.9735  1.100      0.745277      0.190844     -1.858556
   11   N     11    1.8300  1.100     -1.867929      0.038142     -0.825097
   12   O     12    1.7500  1.100     -2.668803     -0.865735     -0.199631
   13   O     13    1.7500  1.100     -2.376894      1.287974     -0.656353
 ------------------------------------------------------------------------------
 One-electron integrals computed using PRISM.
   1 Symmetry operations used in ECPInt.
 ECPInt:  NShTT=    3741 NPrTT=   16128 LenC2=    3554 LenP2D=   10968.
 LDataN:  DoStor=T MaxTD1= 6 Len=  172
 NBasis=   202 RedAO= T EigKep=  2.32D-03  NBF=   202
 NBsUse=   202 1.00D-06 EigRej= -1.00D+00 NBFU=   202
 Defaulting to unpruned grid for atomic number  78.
 ExpMin= 2.90D-02 ExpMax= 1.04D+04 ExpMxC= 1.57D+03 IAcc=3 IRadAn=         5 AccDes= 0.00D+00
 Harris functional with IExCor=  402 and IRadAn=       5 diagonalized for initial guess.
 HarFok:  IExCor=  402 AccDes= 0.00D+00 IRadAn=         5 IDoV= 1 UseB2=F ITyADJ=14
 ICtDFT=  3500011 ScaDFX=  1.000000  1.000000  1.000000  1.000000
 Defaulting to unpruned grid for atomic number  78.
 Defaulting to unpruned grid for atomic number  78.
 Defaulting to unpruned grid for atomic number  78.
 Defaulting to unpruned grid for atomic number  78.
 Defaulting to unpruned grid for atomic number  78.
 Defaulting to unpruned grid for atomic number  78.
 Defaulting to unpruned grid for atomic number  78.
 Defaulting to unpruned grid for atomic number  78.
 FoFCou: FMM=F IPFlag=           0 FMFlag=      100000 FMFlg1=           0
         NFxFlg=           0 DoJE=T BraDBF=F KetDBF=T FulRan=T
         wScrn=  0.000000 ICntrl=     500 IOpCl=  0 I1Cent=   200000004 NGrid=           0
         NMat0=    1 NMatS0=      1 NMatT0=    0 NMatD0=    1 NMtDS0=    0 NMtDT0=    0
 Petite list used in FoFCou.
 Keep R1 ints in memory in canonical form, NReq=216026526.
 Requested convergence on RMS density matrix=1.00D-08 within 128 cycles.
 Requested convergence on MAX density matrix=1.00D-06.
 Requested convergence on             energy=1.00D-06.
 No special actions if energy rises.
 Defaulting to unpruned grid for atomic number  78.
 Defaulting to unpruned grid for atomic number  78.
 Defaulting to unpruned grid for atomic number  78.
 Defaulting to unpruned grid for atomic number  78.
 Defaulting to unpruned grid for atomic number  78.
 Defaulting to unpruned grid for atomic number  78.
 Defaulting to unpruned grid for atomic number  78.
 Defaulting to unpruned grid for atomic number  78.
 Inv3:  Mode=1 IEnd=     6714048.
 Iteration    1 A*A^-1 deviation from unit magnitude is 6.11D-15 for   1215.
 Iteration    1 A*A^-1 deviation from orthogonality  is 4.18D-15 for   1043    674.
 Iteration    1 A^-1*A deviation from unit magnitude is 6.00D-15 for     69.
 Iteration    1 A^-1*A deviation from orthogonality  is 1.33D-08 for   1121   1046.
 Iteration    2 A*A^-1 deviation from unit magnitude is 9.33D-15 for     69.
 Iteration    2 A*A^-1 deviation from orthogonality  is 4.78D-15 for    993    301.
 Iteration    2 A^-1*A deviation from unit magnitude is 1.78D-15 for    175.
 Iteration    2 A^-1*A deviation from orthogonality  is 7.35D-16 for   1100    651.
 EnCoef did   100 forward-backward iterations
 EnCoef did   100 forward-backward iterations
 EnCoef did   100 forward-backward iterations
 EnCoef did     3 forward-backward iterations
 EnCoef did     2 forward-backward iterations
 Error on total polarization charges =  0.00954
 SCF Done:  E(RB3LYP) =  -2114.23092976     A.U. after   26 cycles
            NFock= 26  Conv=0.90D-08     -V/T= 2.0431

 **********************************************************************

            Population analysis using the SCF density.

 **********************************************************************

 Orbital symmetries:
       Occupied  (A) (A) (A) (A) (A) (A) (A) (A) (A) (A) (A) (A)
                 (A) (A) (A) (A) (A) (A) (A) (A) (A) (A) (A) (A)
                 (A) (A) (A) (A) (A) (A) (A) (A) (A) (A) (A) (A)
                 (A) (A) (A) (A) (A) (A) (A) (A) (A) (A) (A) (A)
                 (A) (A) (A) (A) (A) (A) (A) (A) (A) (A) (A) (A)
                 (A) (A) (A) (A) (A) (A) (A) (A) (A) (A)
       Virtual   (A) (A) (A) (A) (A) (A) (A) (A) (A) (A) (A) (A)
                 (A) (A) (A) (A) (A) (A) (A) (A) (A) (A) (A) (A)
                 (A) (A) (A) (A) (A) (A) (A) (A) (A) (A) (A) (A)
                 (A) (A) (A) (A) (A) (A) (A) (A) (A) (A) (A) (A)
                 (A) (A) (A) (A) (A) (A) (A) (A) (A) (A) (A) (A)
                 (A) (A) (A) (A) (A) (A) (A) (A) (A) (A) (A) (A)
                 (A) (A) (A) (A) (A) (A) (A) (A) (A) (A) (A) (A)
                 (A) (A) (A) (A) (A) (A) (A) (A) (A) (A) (A) (A)
                 (A) (A) (A) (A) (A) (A) (A) (A) (A) (A) (A) (A)
                 (A) (A) (A) (A) (A) (A) (A) (A) (A) (A) (A) (A)
                 (A) (A) (A) (A) (A) (A) (A) (A) (A) (A) (A) (A)
 The electronic state is 1-A.
 Alpha  occ. eigenvalues -- -101.45468-101.43874-101.43596 -19.14949 -19.14424
 Alpha  occ. eigenvalues --  -19.14414 -19.14116 -19.13910 -19.13859 -14.49710
 Alpha  occ. eigenvalues --  -14.49445 -14.48716  -9.40894  -9.40022  -9.39787
 Alpha  occ. eigenvalues --   -7.17724  -7.16836  -7.16811  -7.16758  -7.16538
 Alpha  occ. eigenvalues --   -7.15968  -7.15822  -7.15688  -7.15607  -4.05528
 Alpha  occ. eigenvalues --   -2.28424  -2.27056  -2.26599  -1.09725  -1.09114
 Alpha  occ. eigenvalues --   -1.08604  -0.93380  -0.93268  -0.92630  -0.83217
 Alpha  occ. eigenvalues --   -0.77061  -0.76830  -0.67747  -0.65525  -0.63299
 Alpha  occ. eigenvalues --   -0.51983  -0.50789  -0.49774  -0.48606  -0.48407
 Alpha  occ. eigenvalues --   -0.47276  -0.46731  -0.45859  -0.44768  -0.44056
 Alpha  occ. eigenvalues --   -0.43276  -0.40412  -0.38315  -0.36719  -0.32304
 Alpha  occ. eigenvalues --   -0.30617  -0.28737  -0.28187  -0.27928  -0.27835
 Alpha  occ. eigenvalues --   -0.27666  -0.27184  -0.26401  -0.26115  -0.25832
 Alpha  occ. eigenvalues --   -0.24816  -0.24521  -0.24148  -0.21804  -0.20762
 Alpha virt. eigenvalues --   -0.14105  -0.12559  -0.09869  -0.02354   0.00794
 Alpha virt. eigenvalues --    0.05523   0.06078   0.06514   0.18631   0.19173
 Alpha virt. eigenvalues --    0.19748   0.20176   0.20761   0.20858   0.21433
 Alpha virt. eigenvalues --    0.31203   0.33885   0.36645   0.43944   0.45587
 Alpha virt. eigenvalues --    0.46739   0.48792   0.54976   0.60282   0.65671
 Alpha virt. eigenvalues --    0.66181   0.67735   0.70285   0.72769   0.73603
 Alpha virt. eigenvalues --    0.74025   0.74944   0.75924   0.77089   0.77225
 Alpha virt. eigenvalues --    0.77492   0.78799   0.79166   0.79656   0.80920
 Alpha virt. eigenvalues --    0.81708   0.82100   0.85090   0.86022   0.88808
 Alpha virt. eigenvalues --    0.90019   0.91364   0.92428   0.92969   0.94285
 Alpha virt. eigenvalues --    0.95225   0.96483   0.97786   0.98346   0.99170
 Alpha virt. eigenvalues --    1.01298   1.03050   1.04494   1.05604   1.06107
 Alpha virt. eigenvalues --    1.07792   1.08380   1.10477   1.10984   1.15038
 Alpha virt. eigenvalues --    1.15887   1.17471   1.18043   1.19894   1.22196
 Alpha virt. eigenvalues --    1.23392   1.24288   1.26597   1.28699   1.29504
 Alpha virt. eigenvalues --    1.31533   1.33509   1.39001   1.41159   1.42816
 Alpha virt. eigenvalues --    1.45270   1.48007   1.51221   1.54126   1.56319
 Alpha virt. eigenvalues --    1.64009   1.90171   1.91524   1.96209   1.98431
 Alpha virt. eigenvalues --    2.01549   2.07130   2.11695   2.14756   2.21230
 Alpha virt. eigenvalues --    2.30675   2.32386   2.33130   2.34093   2.35625
 Alpha virt. eigenvalues --    2.36019   2.64891   2.65591   2.66165   2.66280
 Alpha virt. eigenvalues --    2.66906   2.67203   2.68170   2.68849   2.69029
 Alpha virt. eigenvalues --    2.69585   2.72498   2.75827   2.76039   2.76944
 Alpha virt. eigenvalues --    2.77784   2.96951   2.98071   3.00142   3.01355
 Alpha virt. eigenvalues --    3.01637   3.02412   3.22399   3.23222   3.24280
 Alpha virt. eigenvalues --    3.48408   3.50370   3.52488   3.68448   3.69535
 Alpha virt. eigenvalues --    3.72023   7.44918
          Condensed to atoms (all electrons):
               1          2          3          4          5          6
     1  Pt  17.515111   0.242963   0.029481  -0.054416  -0.005883  -0.008857
     2  Cl   0.242963  16.932906  -0.005061  -0.003490   0.000640  -0.018565
     3  N    0.029481  -0.005061   6.637081  -0.014415   0.196784   0.179198
     4  N   -0.054416  -0.003490  -0.014415   6.806175  -0.001620   0.000314
     5  O   -0.005883   0.000640   0.196784  -0.001620   8.210574  -0.092436
     6  O   -0.008857  -0.018565   0.179198   0.000314  -0.092436   8.221755
     7  O   -0.006704   0.000041  -0.003455   0.183915   0.003333   0.000035
     8  O    0.006102   0.000042  -0.002014   0.173244   0.000097  -0.000007
     9  Cl  -0.021609  -0.015843  -0.031517  -0.045968   0.000656  -0.002970
    10  Cl  -0.007449  -0.021917  -0.016598  -0.049116  -0.040460   0.000577
    11  N    0.002925  -0.011050  -0.005964  -0.008396   0.000094   0.000091
    12  O   -0.009865  -0.004846   0.000101   0.000046   0.000000  -0.000001
    13  O    0.012896   0.000078   0.000113  -0.018867   0.000000   0.000000
               7          8          9         10         11         12
     1  Pt  -0.006704   0.006102  -0.021609  -0.007449   0.002925  -0.009865
     2  Cl   0.000041   0.000042  -0.015843  -0.021917  -0.011050  -0.004846
     3  N   -0.003455  -0.002014  -0.031517  -0.016598  -0.005964   0.000101
     4  N    0.183915   0.173244  -0.045968  -0.049116  -0.008396   0.000046
     5  O    0.003333   0.000097   0.000656  -0.040460   0.000094   0.000000
     6  O    0.000035  -0.000007  -0.002970   0.000577   0.000091  -0.000001
     7  O    8.204441  -0.095021   0.000630  -0.027112   0.000194  -0.000001
     8  O   -0.095021   8.232072  -0.039854   0.000625   0.000118   0.000016
     9  Cl   0.000630  -0.039854  17.546391  -0.018266  -0.022163  -0.007740
    10  Cl  -0.027112   0.000625  -0.018266  17.544874  -0.028334   0.000545
    11  N    0.000194   0.000118  -0.022163  -0.028334   6.674498   0.188421
    12  O   -0.000001   0.000016  -0.007740   0.000545   0.188421   8.185664
    13  O    0.000108   0.000060  -0.000079   0.000015   0.168485  -0.092792
              13
     1  Pt   0.012896
     2  Cl   0.000078
     3  N    0.000113
     4  N   -0.018867
     5  O    0.000000
     6  O    0.000000
     7  O    0.000108
     8  O    0.000060
     9  Cl  -0.000079
    10  Cl   0.000015
    11  N    0.168485
    12  O   -0.092792
    13  O    8.223935
 Mulliken charges:
               1
     1  Pt   0.305305
     2  Cl  -0.095899
     3  N    0.036266
     4  N    0.032594
     5  O   -0.271778
     6  O   -0.279133
     7  O   -0.260403
     8  O   -0.275479
     9  Cl  -0.341669
    10  Cl  -0.337384
    11  N    0.041081
    12  O   -0.259548
    13  O   -0.293952
 Sum of Mulliken charges =  -2.00000
 Mulliken charges with hydrogens summed into heavy atoms:
               1
     1  Pt   0.305305
     2  Cl  -0.095899
     3  N    0.036266
     4  N    0.032594
     5  O   -0.271778
     6  O   -0.279133
     7  O   -0.260403
     8  O   -0.275479
     9  Cl  -0.341669
    10  Cl  -0.337384
    11  N    0.041081
    12  O   -0.259548
    13  O   -0.293952
 Electronic spatial extent (au):  <R**2>=           2708.5715
 Charge=             -2.0000 electrons
 Dipole moment (field-independent basis, Debye):
    X=             -1.0327    Y=             -0.9146    Z=             -1.1949  Tot=              1.8251
 Quadrupole moment (field-independent basis, Debye-Ang):
   XX=           -149.9511   YY=           -142.5451   ZZ=           -131.3775
   XY=              0.0531   XZ=              1.8859   YZ=              1.2398
 Traceless Quadrupole moment (field-independent basis, Debye-Ang):
   XX=             -8.6599   YY=             -1.2538   ZZ=              9.9137
   XY=              0.0531   XZ=              1.8859   YZ=              1.2398
 Octapole moment (field-independent basis, Debye-Ang**2):
  XXX=              1.8547  YYY=            -18.3044  ZZZ=             -9.2307  XYY=             -8.9546
  XXY=              2.1400  XXZ=              1.2316  XZZ=             -5.1430  YZZ=             -4.9624
  YYZ=             -8.7507  XYZ=              4.7844
 Hexadecapole moment (field-independent basis, Debye-Ang**3):
 XXXX=          -1529.4551 YYYY=          -1296.8346 ZZZZ=           -881.2053 XXXY=             17.3413
 XXXZ=             -7.6893 YYYX=            -19.0549 YYYZ=            -11.9922 ZZZX=             14.1909
 ZZZY=             -4.6584 XXYY=           -463.6328 XXZZ=           -363.3093 YYZZ=           -371.9087
 XXYZ=             22.5425 YYXZ=             -7.9997 ZZXY=              8.9467
 N-N= 1.605705763469D+03 E-N=-8.232506596360D+03  KE= 2.026875138473D+03
   1 Symmetry operations used in ECPInt.
 ECPInt:  NShTT=    3741 NPrTT=   16128 LenC2=    3554 LenP2D=   10968.
 LDataN:  DoStor=T MaxTD1= 7 Len=  274
 D1PCM: PCM CHGder 1st derivatives, ID1Alg=3 FixD1E=F DoIter=F DoCFld=F I1PDM=0.
 Calling FoFJK, ICntrl=      2127 FMM=F ISym2X=0 I1Cent= 0 IOpClX= 0 NMat=1 NMatS=1 NMatT=0.
 Defaulting to unpruned grid for atomic number  78.
 Defaulting to unpruned grid for atomic number  78.
 Defaulting to unpruned grid for atomic number  78.
 Defaulting to unpruned grid for atomic number  78.
 Defaulting to unpruned grid for atomic number  78.
 Defaulting to unpruned grid for atomic number  78.
 Defaulting to unpruned grid for atomic number  78.
 Defaulting to unpruned grid for atomic number  78.
 ***** Axes restored to original set *****
 -------------------------------------------------------------------
 Center     Atomic                   Forces (Hartrees/Bohr)
 Number     Number              X              Y              Z
 -------------------------------------------------------------------
      1       78           0.011742840    0.022624999   -0.010544723
      2       17           0.004088453    0.002243824   -0.048008016
      3        7           0.102055402   -0.109988171   -0.131857578
      4        7          -0.008723879   -0.185868513    0.112549120
      5        8          -0.098419923    0.013579723    0.024478148
      6        8           0.000164766    0.021591805    0.099634473
      7        8          -0.065584317    0.080029850   -0.014263437
      8        8           0.074513716    0.070496504   -0.009870584
      9       17          -0.252782236    0.004959877   -0.012445839
     10       17           0.255047863    0.016745391   -0.012232841
     11        7          -0.163596365    0.106179082    0.046212155
     12        8           0.095223146   -0.021469056    0.036039729
     13        8           0.046270535   -0.021125315   -0.079690607
 -------------------------------------------------------------------
 Cartesian Forces:  Max     0.255047863 RMS     0.090888166

 GradGradGradGradGradGradGradGradGradGradGradGradGradGradGradGradGradGrad
 Berny optimization.
 FormGI is forming the generalized inverse of G from B-inverse, IUseBI=4.
 Internal  Forces:  Max     0.255053898 RMS     0.057638225
 Search for a local minimum.
 Step number   1 out of a maximum of   77
 All quantities printed in internal units (Hartrees-Bohrs-Radians)
 Mixed Optimization -- RFO/linear search
 Second derivative matrix not updated -- first step.
 ITU=  0
     Eigenvalues ---    0.00230   0.00230   0.00230   0.03394   0.03424
     Eigenvalues ---    0.04734   0.06423   0.06756   0.08269   0.08931
     Eigenvalues ---    0.12141   0.12615   0.12615   0.16743   0.20378
     Eigenvalues ---    0.20378   0.20378   0.22001   0.25000   0.25000
     Eigenvalues ---    0.25000   0.25000   0.25000   0.25000   0.25000
     Eigenvalues ---    0.52948   0.52948   0.52948   0.52948   0.52948
     Eigenvalues ---    0.52948   0.57823   0.57823
 RFO step:  Lambda=-3.00367770D-01 EMin= 2.30000000D-03
 Linear search not attempted -- first point.
 Maximum step size (   0.300) exceeded in Quadratic search.
    -- Step size scaled by   0.493
 Iteration  1 RMS(Cart)=  0.05437294 RMS(Int)=  0.00119769
 Iteration  2 RMS(Cart)=  0.00126746 RMS(Int)=  0.00058638
 Iteration  3 RMS(Cart)=  0.00000255 RMS(Int)=  0.00058637
 Iteration  4 RMS(Cart)=  0.00000001 RMS(Int)=  0.00058637
 Variable       Old X    -DE/DX   Delta X   Delta X   Delta X     New X
                                 (Linear)    (Quad)   (Total)
    R1        4.30858   0.04801   0.00000   0.04550   0.04550   4.35408
    R2        3.76056   0.07480   0.00000   0.07318   0.07318   3.83374
    R3        3.76056   0.08841   0.00000   0.08650   0.08650   3.84706
    R4        3.76056   0.25278   0.00000   0.14191   0.14191   3.90246
    R5        3.76056   0.25505   0.00000   0.14319   0.14319   3.90374
    R6        3.76056   0.06357   0.00000   0.06219   0.06219   3.82275
    R7        2.57003  -0.09357   0.00000  -0.05562  -0.05562   2.51441
    R8        2.57003  -0.09396   0.00000  -0.05585  -0.05585   2.51418
    R9        2.57003  -0.09801   0.00000  -0.05826  -0.05826   2.51177
   R10        2.57003  -0.09576   0.00000  -0.05692  -0.05692   2.51311
   R11        2.57003  -0.09815   0.00000  -0.05834  -0.05834   2.51169
   R12        2.57003  -0.08822   0.00000  -0.05243  -0.05243   2.51759
    A1        1.57080   0.00937   0.00000   0.00817   0.00812   1.57892
    A2        1.57080  -0.00364   0.00000  -0.00487  -0.00487   1.56593
    A3        1.57080  -0.00796   0.00000  -0.01068  -0.01072   1.56008
    A4        1.57080  -0.00634   0.00000  -0.00434  -0.00436   1.56643
    A5        1.57080  -0.01538   0.00000  -0.01513  -0.01506   1.55574
    A6        1.57080  -0.00644   0.00000  -0.00665  -0.00655   1.56425
    A7        1.57080   0.02004   0.00000   0.02387   0.02390   1.59470
    A8        1.57080   0.00777   0.00000   0.01045   0.01046   1.58126
    A9        1.57080   0.00383   0.00000   0.00510   0.00525   1.57604
   A10        1.57080   0.01235   0.00000   0.01129   0.01138   1.58217
   A11        1.57080  -0.00498   0.00000  -0.00799  -0.00801   1.56278
   A12        1.57080  -0.00863   0.00000  -0.00923  -0.00928   1.56152
   A13        1.91063   0.04410   0.00000   0.04454   0.04362   1.95425
   A14        1.91063   0.02268   0.00000   0.02534   0.02440   1.93504
   A15        1.91063  -0.00771   0.00000   0.00313   0.00147   1.91210
   A16        1.91063   0.04335   0.00000   0.04485   0.04321   1.95384
   A17        1.91063   0.05314   0.00000   0.05362   0.05199   1.96262
   A18        1.91063  -0.01379   0.00000  -0.00036  -0.00321   1.90743
   A19        1.91063   0.02943   0.00000   0.03071   0.03015   1.94079
   A20        1.91063   0.02136   0.00000   0.02348   0.02292   1.93355
   A21        1.91063  -0.00240   0.00000   0.00653   0.00550   1.91614
   A22        3.14159  -0.00601   0.00000  -0.00696  -0.00693   3.13466
   A23        3.14159   0.00303   0.00000   0.00383   0.00376   3.14535
   A24        3.14159  -0.01160   0.00000  -0.01555  -0.01559   3.12600
   A25        3.14159  -0.00413   0.00000  -0.00558  -0.00564   3.13596
   A26        3.14159  -0.01141   0.00000  -0.01464  -0.01458   3.12701
   A27        3.14159  -0.01361   0.00000  -0.01722  -0.01723   3.12437
    D1        1.69913   0.01349   0.00000   0.02020   0.02040   1.71952
    D2       -0.39527  -0.01796   0.00000  -0.02642  -0.02653  -0.42180
    D3       -1.44247   0.01762   0.00000   0.02578   0.02603  -1.41643
    D4        2.74632  -0.01383   0.00000  -0.02084  -0.02089   2.72543
    D5       -3.01326   0.00985   0.00000   0.01533   0.01547  -2.99779
    D6        1.17553  -0.02160   0.00000  -0.03129  -0.03145   1.14408
    D7        0.12833   0.02145   0.00000   0.03088   0.03092   0.15925
    D8       -1.96606  -0.01000   0.00000  -0.01574  -0.01600  -1.98207
    D9        2.58437   0.00436   0.00000   0.00615   0.00646   2.59084
   D10       -1.60442   0.02893   0.00000   0.04272   0.04304  -1.56138
   D11        0.48998  -0.02994   0.00000  -0.04412  -0.04448   0.44550
   D12        2.58437  -0.00538   0.00000  -0.00755  -0.00790   2.57647
   D13        0.98540   0.03074   0.00000   0.04149   0.04202   1.02742
   D14       -1.10899  -0.01146   0.00000  -0.01837  -0.01892  -1.12791
   D15        2.55620   0.02430   0.00000   0.03484   0.03531   2.59151
   D16        0.46180  -0.01790   0.00000  -0.02502  -0.02563   0.43618
   D17       -0.58539   0.01069   0.00000   0.01762   0.01820  -0.56720
   D18       -2.67979  -0.03150   0.00000  -0.04225  -0.04274  -2.72253
   D19       -2.15619   0.01932   0.00000   0.02685   0.02742  -2.12877
   D20        2.03260  -0.02288   0.00000  -0.03301  -0.03352   1.99908
   D21        0.88524  -0.01161   0.00000  -0.01721  -0.01741   0.86783
   D22        2.97964   0.01656   0.00000   0.02397   0.02417   3.00381
   D23       -2.25635  -0.01573   0.00000  -0.02280  -0.02295  -2.27929
   D24       -0.16195   0.01243   0.00000   0.01838   0.01864  -0.14331
   D25       -0.68555  -0.00797   0.00000  -0.01234  -0.01257  -0.69813
   D26        1.40884   0.02019   0.00000   0.02884   0.02901   1.43785
   D27        2.45604  -0.01957   0.00000  -0.02790  -0.02809   2.42795
   D28       -1.73275   0.00860   0.00000   0.01329   0.01349  -1.71925
         Item               Value     Threshold  Converged?
 Maximum Force            0.255054     0.000450     NO 
 RMS     Force            0.057638     0.000300     NO 
 Maximum Displacement     0.152717     0.001800     NO 
 RMS     Displacement     0.053993     0.001200     NO 
 Predicted change in Energy=-1.281239D-01
 GradGradGradGradGradGradGradGradGradGradGradGradGradGradGradGradGradGrad

                          Input orientation:                          
 ---------------------------------------------------------------------
 Center     Atomic      Atomic             Coordinates (Angstroms)
 Number     Number       Type             X           Y           Z
 ---------------------------------------------------------------------
      1         78           0       -0.315826    0.339697   -0.017165
      2         17           0       -0.300460    0.372141   -2.320965
      3          7           0       -0.312302   -1.688990   -0.029228
      4          7           0       -0.317903    0.296938    2.018160
      5          8           0        0.907630   -2.185801    0.158817
      6          8           0       -0.812838   -2.157044   -1.169612
      7          8           0        0.737986   -0.348941    2.502553
      8          8           0       -1.428003   -0.242261    2.513661
      9         17           0       -2.380710    0.322724   -0.041235
     10         17           0        1.749251    0.392702   -0.024788
     11          7           0       -0.348889    2.362245    0.002272
     12          8           0       -1.296612    2.835176   -0.800686
     13          8           0       -0.535974    2.820139    1.239296
 ---------------------------------------------------------------------
                    Distance matrix (angstroms):
                    1          2          3          4          5
     1  Pt   0.000000
     2  Cl   2.304080   0.000000
     3  N    2.028726   3.082282   0.000000
     4  N    2.035775   4.339811   2.852322   0.000000
     5  O    2.811753   3.761897   1.330569   3.335128   0.000000
     6  O    2.794436   2.825760   1.330446   4.053255   2.173835
     7  O    2.816686   4.986447   3.051025   1.329171   2.982605
     8  O    2.825012   5.002245   3.131150   1.329880   3.844193
     9  Cl   2.065094   3.086592   2.885386   2.914952   4.140761
    10  Cl   2.065771   3.078013   2.929754   2.907908   2.718587
    11  N    2.022912   3.059459   4.051523   2.886219   4.721025
    12  O    2.793432   3.061063   4.693836   3.917450   5.566825
    13  O    2.789220   4.327080   4.689502   2.649665   5.320796
                    6          7          8          9         10
     6  O    0.000000
     7  O    4.377109   0.000000
     8  O    4.196585   2.168643   0.000000
     9  Cl   3.143359   4.080227   2.784664   0.000000
    10  Cl   3.791586   2.821372   4.116047   4.130587   0.000000
    11  N    4.691752   3.844897   3.775582   2.879208   2.877851
    12  O    5.029155   5.018922   4.524686   2.839797   3.980576
    13  O    5.536411   3.641683   3.434824   3.358555   3.565475
                   11         12         13
    11  N    0.000000
    12  O    1.329129   0.000000
    13  O    1.332253   2.177229   0.000000
 Stoichiometry    Cl3N3O6Pt(2-)
 Framework group  C1[X(Cl3N3O6Pt)]
 Deg. of freedom    33
 Full point group                 C1      NOp   1
 Largest Abelian subgroup         C1      NOp   1
 Largest concise Abelian subgroup C1      NOp   1
                         Standard orientation:                         
 ---------------------------------------------------------------------
 Center     Atomic      Atomic             Coordinates (Angstroms)
 Number     Number       Type             X           Y           Z
 ---------------------------------------------------------------------
      1         78           0       -0.039950   -0.048743   -0.044266
      2         17           0       -0.175043   -2.330091   -0.337498
      3          7           0        1.836047   -0.239376    0.704083
      4          7           0        0.096781    1.966528    0.209432
      5          8           0        2.766034    0.012257   -0.213642
      6          8           0        2.024359   -1.456720    1.206775
      7          8           0        1.116745    2.484370   -0.467480
      8          8           0        0.198920    2.311440    1.489739
      9         17           0       -0.806904   -0.258457    1.861624
     10         17           0        0.692245    0.132724   -1.967381
     11          7           0       -1.921096    0.146026   -0.762268
     12          8           0       -2.755594   -0.693464   -0.157739
     13          8           0       -2.355603    1.396964   -0.616480
 ---------------------------------------------------------------------
 Rotational constants (GHZ):      0.5934813      0.5586032      0.4749018
 Basis read from rwf:  (5D, 7F)
 Pseudo-potential data read from rwf file.
 There are   216 symmetry adapted cartesian basis functions of A   symmetry.
 There are   202 symmetry adapted basis functions of A   symmetry.
   202 basis functions,   379 primitive gaussians,   216 cartesian basis functions
    70 alpha electrons       70 beta electrons
       nuclear repulsion energy      1576.0244608115 Hartrees.
 NAtoms=   13 NActive=   13 NUniq=   13 SFac= 1.00D+00 NAtFMM=   60 NAOKFM=F Big=F
 Integral buffers will be    131072 words long.
 Raffenetti 2 integral format.
 Two-electron integral symmetry is turned on.
 ------------------------------------------------------------------------------
 Polarizable Continuum Model (PCM)
 =================================
 Model                : PCM (using non-symmetric T matrix).
 Atomic radii         : UFF (Universal Force Field).
 Polarization charges : Total charges.
 Charge compensation  : None.
 Solution method      : On-the-fly selection.
 Cavity type          : Scaled VdW (van der Waals Surface) (Alpha=1.100).
 Cavity algorithm     : GePol (No added spheres)
                        Default sphere list used, NSphG=   13.
                        Lebedev-Laikov grids with approx.  5.0 points / Ang**2.
                        Smoothing algorithm: Karplus/York (Gamma=1.0000).
                        Polarization charges: spherical gaussians, with
                                              point-specific exponents (IZeta= 3).
                        Self-potential: point-specific (ISelfS= 7).
                        Self-field    : sphere-specific E.n sum rule (ISelfD= 2).
 1st derivatives      : Analytical E(r).r(x)/FMM algorithm (CHGder, D1EAlg=3).
                        Cavity 1st derivative terms included.
 Solvent              : Water, Eps=  78.355300 Eps(inf)=   1.777849
 ------------------------------------------------------------------------------
 Spheres list:
 ISph  on   Nord     Re0    Alpha      Xe            Ye            Ze
    1  Pt      1    1.3770  1.100     -0.039950     -0.048743     -0.044266
    2  Cl      2    1.9735  1.100     -0.175043     -2.330091     -0.337498
    3   N      3    1.8300  1.100      1.836047     -0.239376      0.704083
    4   N      4    1.8300  1.100      0.096781      1.966528      0.209432
    5   O      5    1.7500  1.100      2.766034      0.012257     -0.213642
    6   O      6    1.7500  1.100      2.024359     -1.456720      1.206775
    7   O      7    1.7500  1.100      1.116745      2.484370     -0.467480
    8   O      8    1.7500  1.100      0.198920      2.311440      1.489739
    9  Cl      9    1.9735  1.100     -0.806904     -0.258457      1.861624
   10  Cl     10    1.9735  1.100      0.692245      0.132724     -1.967381
   11   N     11    1.8300  1.100     -1.921096      0.146026     -0.762268
   12   O     12    1.7500  1.100     -2.755594     -0.693464     -0.157739
   13   O     13    1.7500  1.100     -2.355603      1.396964     -0.616480
 ------------------------------------------------------------------------------
 One-electron integrals computed using PRISM.
   1 Symmetry operations used in ECPInt.
 ECPInt:  NShTT=    3741 NPrTT=   16128 LenC2=    3552 LenP2D=   10905.
 LDataN:  DoStor=T MaxTD1= 6 Len=  172
 NBasis=   202 RedAO= T EigKep=  2.95D-03  NBF=   202
 NBsUse=   202 1.00D-06 EigRej= -1.00D+00 NBFU=   202
 Defaulting to unpruned grid for atomic number  78.
 Initial guess from the checkpoint file:  "/home/scr/diego/Gau-17093.chk"
 B after Tr=     0.000000    0.000000    0.000000
         Rot=    0.999540    0.003289   -0.012973    0.027199 Ang=   3.47 deg.
 ExpMin= 2.90D-02 ExpMax= 1.04D+04 ExpMxC= 1.57D+03 IAcc=3 IRadAn=         5 AccDes= 0.00D+00
 Harris functional with IExCor=  402 and IRadAn=       5 diagonalized for initial guess.
 HarFok:  IExCor=  402 AccDes= 0.00D+00 IRadAn=         5 IDoV= 1 UseB2=F ITyADJ=14
 ICtDFT=  3500011 ScaDFX=  1.000000  1.000000  1.000000  1.000000
 Defaulting to unpruned grid for atomic number  78.
 Defaulting to unpruned grid for atomic number  78.
 Defaulting to unpruned grid for atomic number  78.
 Defaulting to unpruned grid for atomic number  78.
 Defaulting to unpruned grid for atomic number  78.
 Defaulting to unpruned grid for atomic number  78.
 Defaulting to unpruned grid for atomic number  78.
 Defaulting to unpruned grid for atomic number  78.
 FoFCou: FMM=F IPFlag=           0 FMFlag=      100000 FMFlg1=           0
         NFxFlg=           0 DoJE=T BraDBF=F KetDBF=T FulRan=T
         wScrn=  0.000000 ICntrl=     500 IOpCl=  0 I1Cent=   200000004 NGrid=           0
         NMat0=    1 NMatS0=      1 NMatT0=    0 NMatD0=    1 NMtDS0=    0 NMtDT0=    0
 Petite list used in FoFCou.
 Keep R1 ints in memory in canonical form, NReq=216119190.
 Requested convergence on RMS density matrix=1.00D-08 within 128 cycles.
 Requested convergence on MAX density matrix=1.00D-06.
 Requested convergence on             energy=1.00D-06.
 No special actions if energy rises.
 Defaulting to unpruned grid for atomic number  78.
 Defaulting to unpruned grid for atomic number  78.
 Defaulting to unpruned grid for atomic number  78.
 Defaulting to unpruned grid for atomic number  78.
 Defaulting to unpruned grid for atomic number  78.
 Defaulting to unpruned grid for atomic number  78.
 Defaulting to unpruned grid for atomic number  78.
 Defaulting to unpruned grid for atomic number  78.
 Inv3:  Mode=1 IEnd=     6986028.
 Iteration    1 A*A^-1 deviation from unit magnitude is 6.66D-15 for    334.
 Iteration    1 A*A^-1 deviation from orthogonality  is 4.63D-15 for   1307      8.
 Iteration    1 A^-1*A deviation from unit magnitude is 6.66D-15 for   1184.
 Iteration    1 A^-1*A deviation from orthogonality  is 2.77D-14 for   1035   1022.
 Error on total polarization charges =  0.00929
 SCF Done:  E(RB3LYP) =  -2114.35887328     A.U. after   18 cycles
            NFock= 18  Conv=0.29D-08     -V/T= 2.0434
   1 Symmetry operations used in ECPInt.
 ECPInt:  NShTT=    3741 NPrTT=   16128 LenC2=    3552 LenP2D=   10905.
 LDataN:  DoStor=T MaxTD1= 7 Len=  274
 D1PCM: PCM CHGder 1st derivatives, ID1Alg=3 FixD1E=F DoIter=F DoCFld=F I1PDM=0.
 Calling FoFJK, ICntrl=      2127 FMM=F ISym2X=0 I1Cent= 0 IOpClX= 0 NMat=1 NMatS=1 NMatT=0.
 Defaulting to unpruned grid for atomic number  78.
 Defaulting to unpruned grid for atomic number  78.
 Defaulting to unpruned grid for atomic number  78.
 Defaulting to unpruned grid for atomic number  78.
 Defaulting to unpruned grid for atomic number  78.
 Defaulting to unpruned grid for atomic number  78.
 Defaulting to unpruned grid for atomic number  78.
 Defaulting to unpruned grid for atomic number  78.
 ***** Axes restored to original set *****
 -------------------------------------------------------------------
 Center     Atomic                   Forces (Hartrees/Bohr)
 Number     Number              X              Y              Z
 -------------------------------------------------------------------
      1       78           0.009736190    0.019012970    0.002091340
      2       17           0.003123136    0.000402512   -0.036455422
      3        7           0.099630278   -0.098146341   -0.127435144
      4        7          -0.006102738   -0.170529460    0.101347940
      5        8          -0.084726111    0.023392353    0.029271704
      6        8          -0.008498802    0.025484001    0.087772893
      7        8          -0.048424225    0.073897871   -0.023741466
      8        8           0.054322367    0.068160585   -0.022769286
      9       17          -0.173406826   -0.000037930   -0.007003810
     10       17           0.174210627    0.013441797   -0.006416502
     11        7          -0.155993822    0.091645254    0.045365841
     12        8           0.087180609   -0.023074177    0.023980079
     13        8           0.048949317   -0.023649434   -0.066008166
 -------------------------------------------------------------------
 Cartesian Forces:  Max     0.174210627 RMS     0.075444257

 GradGradGradGradGradGradGradGradGradGradGradGradGradGradGradGradGradGrad
 Berny optimization.
 Using GEDIIS/GDIIS optimizer.
 FormGI is forming the generalized inverse of G from B-inverse, IUseBI=4.
 Internal  Forces:  Max     0.174524691 RMS     0.042516498
 Search for a local minimum.
 Step number   2 out of a maximum of   77
 All quantities printed in internal units (Hartrees-Bohrs-Radians)
 Mixed Optimization -- RFO/linear search
 Update second derivatives using D2CorX and points    1    2
 DE= -1.28D-01 DEPred=-1.28D-01 R= 9.99D-01
 TightC=F SS=  1.41D+00  RLast= 3.31D-01 DXNew= 5.0454D-01 9.9359D-01
 Trust test= 9.99D-01 RLast= 3.31D-01 DXMaxT set to 5.05D-01
 ITU=  1  0
 Use linear search instead of GDIIS.
 Linear search step of   0.598 exceeds DXMaxT=   0.505 but not scaled.
 Quartic linear search produced a step of  2.00000.
 Iteration  1 RMS(Cart)=  0.09901107 RMS(Int)=  0.01563870
 Iteration  2 RMS(Cart)=  0.01545789 RMS(Int)=  0.00320904
 Iteration  3 RMS(Cart)=  0.00004819 RMS(Int)=  0.00320885
 Iteration  4 RMS(Cart)=  0.00000043 RMS(Int)=  0.00320885
 Variable       Old X    -DE/DX   Delta X   Delta X   Delta X     New X
                                 (Linear)    (Quad)   (Total)
    R1        4.35408   0.03648   0.09101   0.00000   0.09101   4.44509
    R2        3.83374   0.04939   0.14636   0.00000   0.14637   3.98011
    R3        3.84706   0.05543   0.17300   0.00000   0.17300   4.02006
    R4        3.90246   0.17347   0.28382   0.00000   0.28382   4.18628
    R5        3.90374   0.17452   0.28637   0.00000   0.28637   4.19011
    R6        3.82275   0.04523   0.12439   0.00000   0.12438   3.94713
    R7        2.51441  -0.08227  -0.11123   0.00000  -0.11123   2.40318
    R8        2.51418  -0.08102  -0.11170   0.00000  -0.11170   2.40248
    R9        2.51177  -0.08305  -0.11651   0.00000  -0.11651   2.39526
   R10        2.51311  -0.08145  -0.11384   0.00000  -0.11384   2.39927
   R11        2.51169  -0.08485  -0.11667   0.00000  -0.11667   2.39502
   R12        2.51759  -0.07631  -0.10487   0.00000  -0.10487   2.41272
    A1        1.57892   0.00343   0.01625   0.00000   0.01592   1.59484
    A2        1.56593  -0.00087  -0.00974   0.00000  -0.00975   1.55618
    A3        1.56008  -0.00448  -0.02144   0.00000  -0.02164   1.53844
    A4        1.56643  -0.00240  -0.00873   0.00000  -0.00889   1.55754
    A5        1.55574  -0.01001  -0.03011   0.00000  -0.02964   1.52610
    A6        1.56425  -0.00478  -0.01310   0.00000  -0.01249   1.55176
    A7        1.59470   0.01155   0.04780   0.00000   0.04793   1.64263
    A8        1.58126   0.00306   0.02092   0.00000   0.02096   1.60221
    A9        1.57604   0.00244   0.01050   0.00000   0.01140   1.58745
   A10        1.58217   0.00904   0.02275   0.00000   0.02326   1.60543
   A11        1.56278  -0.00158  -0.01603   0.00000  -0.01616   1.54662
   A12        1.56152  -0.00515  -0.01856   0.00000  -0.01886   1.54265
   A13        1.95425   0.02224   0.08724   0.00000   0.08160   2.03585
   A14        1.93504   0.01065   0.04881   0.00000   0.04291   1.97795
   A15        1.91210   0.00581   0.00293   0.00000  -0.00576   1.90634
   A16        1.95384   0.01978   0.08642   0.00000   0.07612   2.02996
   A17        1.96262   0.02260   0.10398   0.00000   0.09382   2.05644
   A18        1.90743   0.00696  -0.00641   0.00000  -0.02093   1.88650
   A19        1.94079   0.02095   0.06031   0.00000   0.05676   1.99755
   A20        1.93355   0.00912   0.04584   0.00000   0.04224   1.97580
   A21        1.91614   0.00642   0.01100   0.00000   0.00536   1.92149
   A22        3.13466  -0.00657  -0.01387   0.00000  -0.01372   3.12094
   A23        3.14535   0.00103   0.00752   0.00000   0.00703   3.15238
   A24        3.12600  -0.00534  -0.03118   0.00000  -0.03138   3.09462
   A25        3.13596  -0.00227  -0.01127   0.00000  -0.01159   3.12437
   A26        3.12701  -0.00637  -0.02917   0.00000  -0.02880   3.09821
   A27        3.12437  -0.00667  -0.03445   0.00000  -0.03449   3.08988
    D1        1.71952   0.01387   0.04079   0.00000   0.04167   1.76119
    D2       -0.42180  -0.01717  -0.05306   0.00000  -0.05348  -0.47527
    D3       -1.41643   0.01614   0.05207   0.00000   0.05326  -1.36318
    D4        2.72543  -0.01490  -0.04178   0.00000  -0.04189   2.68354
    D5       -2.99779   0.01294   0.03094   0.00000   0.03151  -2.96628
    D6        1.14408  -0.01810  -0.06291   0.00000  -0.06363   1.08044
    D7        0.15925   0.01818   0.06185   0.00000   0.06186   0.22111
    D8       -1.98207  -0.01287  -0.03200   0.00000  -0.03329  -2.01536
    D9        2.59084   0.00261   0.01293   0.00000   0.01466   2.60550
   D10       -1.56138   0.02942   0.08608   0.00000   0.08762  -1.47376
   D11        0.44550  -0.03021  -0.08896   0.00000  -0.09057   0.35493
   D12        2.57647  -0.00341  -0.01580   0.00000  -0.01761   2.55886
   D13        1.02742   0.02645   0.08404   0.00000   0.08629   1.11371
   D14       -1.12791  -0.01491  -0.03783   0.00000  -0.04018  -1.16809
   D15        2.59151   0.02152   0.07062   0.00000   0.07252   2.66403
   D16        0.43618  -0.01984  -0.05125   0.00000  -0.05394   0.38224
   D17       -0.56720   0.01499   0.03639   0.00000   0.03894  -0.52825
   D18       -2.72253  -0.02637  -0.08549   0.00000  -0.08752  -2.81005
   D19       -2.12877   0.02007   0.05483   0.00000   0.05731  -2.07146
   D20        1.99908  -0.02130  -0.06704   0.00000  -0.06915   1.92992
   D21        0.86783  -0.01281  -0.03482   0.00000  -0.03588   0.83195
   D22        3.00381   0.01636   0.04835   0.00000   0.04938   3.05319
   D23       -2.27929  -0.01494  -0.04589   0.00000  -0.04666  -2.32595
   D24       -0.14331   0.01423   0.03728   0.00000   0.03861  -0.10470
   D25       -0.69813  -0.01196  -0.02515   0.00000  -0.02642  -0.72455
   D26        1.43785   0.01720   0.05802   0.00000   0.05885   1.49670
   D27        2.42795  -0.01724  -0.05618   0.00000  -0.05720   2.37075
   D28       -1.71925   0.01193   0.02699   0.00000   0.02806  -1.69119
         Item               Value     Threshold  Converged?
 Maximum Force            0.174525     0.000450     NO 
 RMS     Force            0.042516     0.000300     NO 
 Maximum Displacement     0.292290     0.001800     NO 
 RMS     Displacement     0.103951     0.001200     NO 
 Predicted change in Energy=-1.391767D-01
 GradGradGradGradGradGradGradGradGradGradGradGradGradGradGradGradGradGrad

                          Input orientation:                          
 ---------------------------------------------------------------------
 Center     Atomic      Atomic             Coordinates (Angstroms)
 Number     Number       Type             X           Y           Z
 ---------------------------------------------------------------------
      1         78           0       -0.306966    0.342100   -0.047444
      2         17           0       -0.262046    0.434664   -2.397432
      3          7           0       -0.299767   -1.763824   -0.079580
      4          7           0       -0.310808    0.214623    2.076053
      5          8           0        0.813953   -2.333888    0.148228
      6          8           0       -0.812217   -2.252975   -1.135245
      7          8           0        0.709513   -0.316138    2.608813
      8          8           0       -1.343341   -0.263650    2.639183
      9         17           0       -2.520391    0.293524   -0.124076
     10         17           0        1.903924    0.509168   -0.070396
     11          7           0       -0.405087    2.427864    0.005131
     12          8           0       -1.266184    2.932384   -0.776048
     13          8           0       -0.555234    2.894869    1.183890
 ---------------------------------------------------------------------
                    Distance matrix (angstroms):
                    1          2          3          4          5
     1  Pt   0.000000
     2  Cl   2.352239   0.000000
     3  N    2.106182   3.194873   0.000000
     4  N    2.127324   4.479159   2.925941   0.000000
     5  O    2.907862   3.911910   1.271708   3.387699   0.000000
     6  O    2.858846   3.019803   1.271338   4.080795   2.073229
     7  O    2.919282   5.154620   3.215882   1.267514   3.183819
     8  O    2.942613   5.198493   3.275858   1.269640   3.891614
     9  Cl   2.215283   3.207521   3.027512   3.119142   4.253856
    10  Cl   2.217313   3.179948   3.165886   3.098232   3.052671
    11  N    2.088732   3.124999   4.193867   3.032498   4.917400
    12  O    2.856665   3.142576   4.844936   4.053820   5.737149
    13  O    2.845075   4.354818   4.833740   2.835387   5.503378
                    6          7          8          9         10
     6  O    0.000000
     7  O    4.481625   0.000000
     8  O    4.299513   2.053749   0.000000
     9  Cl   3.228773   4.274651   3.054749   0.000000
    10  Cl   4.017556   3.047279   4.299279   4.429892   0.000000
    11  N    4.834921   3.943480   3.881082   3.007759   3.003104
    12  O    5.217572   5.090536   4.678076   2.993608   4.052100
    13  O    5.651966   3.733705   3.565843   3.512779   3.648597
                   11         12         13
    11  N    0.000000
    12  O    1.267388   0.000000
    13  O    1.276758   2.085238   0.000000
 Stoichiometry    Cl3N3O6Pt(2-)
 Framework group  C1[X(Cl3N3O6Pt)]
 Deg. of freedom    33
 Full point group                 C1      NOp   1
 Largest Abelian subgroup         C1      NOp   1
 Largest concise Abelian subgroup C1      NOp   1
                         Standard orientation:                         
 ---------------------------------------------------------------------
 Center     Atomic      Atomic             Coordinates (Angstroms)
 Number     Number       Type             X           Y           Z
 ---------------------------------------------------------------------
      1         78           0       -0.042681   -0.055141   -0.043805
      2         17           0       -0.493729   -2.341534   -0.363165
      3          7           0        1.909657   -0.481158    0.621696
      4          7           0        0.417886    2.004357    0.224247
      5          8           0        2.848336   -0.313465   -0.219732
      6          8           0        2.021578   -1.632166    1.149857
      7          8           0        1.338161    2.474356   -0.509775
      8          8           0        0.607580    2.419912    1.408864
      9         17           0       -0.750460   -0.240882    2.047134
     10         17           0        0.538136    0.054987   -2.180859
     11          7           0       -2.003411    0.382985   -0.615105
     12          8           0       -2.886243   -0.328387   -0.048685
     13          8           0       -2.296527    1.620254   -0.499523
 ---------------------------------------------------------------------
 Rotational constants (GHZ):      0.5454742      0.5121268      0.4467784
 Basis read from rwf:  (5D, 7F)
 Pseudo-potential data read from rwf file.
 There are   216 symmetry adapted cartesian basis functions of A   symmetry.
 There are   202 symmetry adapted basis functions of A   symmetry.
   202 basis functions,   379 primitive gaussians,   216 cartesian basis functions
    70 alpha electrons       70 beta electrons
       nuclear repulsion energy      1524.4013929703 Hartrees.
 NAtoms=   13 NActive=   13 NUniq=   13 SFac= 1.00D+00 NAtFMM=   60 NAOKFM=F Big=F
 Integral buffers will be    131072 words long.
 Raffenetti 2 integral format.
 Two-electron integral symmetry is turned on.
 ------------------------------------------------------------------------------
 Polarizable Continuum Model (PCM)
 =================================
 Model                : PCM (using non-symmetric T matrix).
 Atomic radii         : UFF (Universal Force Field).
 Polarization charges : Total charges.
 Charge compensation  : None.
 Solution method      : On-the-fly selection.
 Cavity type          : Scaled VdW (van der Waals Surface) (Alpha=1.100).
 Cavity algorithm     : GePol (No added spheres)
                        Default sphere list used, NSphG=   13.
                        Lebedev-Laikov grids with approx.  5.0 points / Ang**2.
                        Smoothing algorithm: Karplus/York (Gamma=1.0000).
                        Polarization charges: spherical gaussians, with
                                              point-specific exponents (IZeta= 3).
                        Self-potential: point-specific (ISelfS= 7).
                        Self-field    : sphere-specific E.n sum rule (ISelfD= 2).
 1st derivatives      : Analytical E(r).r(x)/FMM algorithm (CHGder, D1EAlg=3).
                        Cavity 1st derivative terms included.
 Solvent              : Water, Eps=  78.355300 Eps(inf)=   1.777849
 ------------------------------------------------------------------------------
 Spheres list:
 ISph  on   Nord     Re0    Alpha      Xe            Ye            Ze
    1  Pt      1    1.3770  1.100     -0.042681     -0.055141     -0.043805
    2  Cl      2    1.9735  1.100     -0.493729     -2.341534     -0.363165
    3   N      3    1.8300  1.100      1.909657     -0.481158      0.621696
    4   N      4    1.8300  1.100      0.417886      2.004357      0.224247
    5   O      5    1.7500  1.100      2.848336     -0.313465     -0.219732
    6   O      6    1.7500  1.100      2.021578     -1.632166      1.149857
    7   O      7    1.7500  1.100      1.338161      2.474356     -0.509775
    8   O      8    1.7500  1.100      0.607580      2.419912      1.408864
    9  Cl      9    1.9735  1.100     -0.750460     -0.240882      2.047134
   10  Cl     10    1.9735  1.100      0.538136      0.054987     -2.180859
   11   N     11    1.8300  1.100     -2.003411      0.382985     -0.615105
   12   O     12    1.7500  1.100     -2.886243     -0.328387     -0.048685
   13   O     13    1.7500  1.100     -2.296527      1.620254     -0.499523
 ------------------------------------------------------------------------------
 One-electron integrals computed using PRISM.
   1 Symmetry operations used in ECPInt.
 ECPInt:  NShTT=    3741 NPrTT=   16128 LenC2=    3518 LenP2D=   10782.
 LDataN:  DoStor=T MaxTD1= 6 Len=  172
 NBasis=   202 RedAO= T EigKep=  4.19D-03  NBF=   202
 NBsUse=   202 1.00D-06 EigRej= -1.00D+00 NBFU=   202
 Defaulting to unpruned grid for atomic number  78.
 Initial guess from the checkpoint file:  "/home/scr/diego/Gau-17093.chk"
 B after Tr=     0.000000    0.000000    0.000000
         Rot=    0.998068    0.000243   -0.029977    0.054425 Ang=   7.12 deg.
 ExpMin= 2.90D-02 ExpMax= 1.04D+04 ExpMxC= 1.57D+03 IAcc=3 IRadAn=         5 AccDes= 0.00D+00
 Harris functional with IExCor=  402 and IRadAn=       5 diagonalized for initial guess.
 HarFok:  IExCor=  402 AccDes= 0.00D+00 IRadAn=         5 IDoV= 1 UseB2=F ITyADJ=14
 ICtDFT=  3500011 ScaDFX=  1.000000  1.000000  1.000000  1.000000
 Defaulting to unpruned grid for atomic number  78.
 Defaulting to unpruned grid for atomic number  78.
 Defaulting to unpruned grid for atomic number  78.
 Defaulting to unpruned grid for atomic number  78.
 Defaulting to unpruned grid for atomic number  78.
 Defaulting to unpruned grid for atomic number  78.
 Defaulting to unpruned grid for atomic number  78.
 Defaulting to unpruned grid for atomic number  78.
 FoFCou: FMM=F IPFlag=           0 FMFlag=      100000 FMFlg1=           0
         NFxFlg=           0 DoJE=T BraDBF=F KetDBF=T FulRan=T
         wScrn=  0.000000 ICntrl=     500 IOpCl=  0 I1Cent=   200000004 NGrid=           0
         NMat0=    1 NMatS0=      1 NMatT0=    0 NMatD0=    1 NMtDS0=    0 NMtDT0=    0
 Petite list used in FoFCou.
 Keep R1 ints in memory in canonical form, NReq=216332304.
 Requested convergence on RMS density matrix=1.00D-08 within 128 cycles.
 Requested convergence on MAX density matrix=1.00D-06.
 Requested convergence on             energy=1.00D-06.
 No special actions if energy rises.
 Defaulting to unpruned grid for atomic number  78.
 Defaulting to unpruned grid for atomic number  78.
 Defaulting to unpruned grid for atomic number  78.
 Defaulting to unpruned grid for atomic number  78.
 Defaulting to unpruned grid for atomic number  78.
 Defaulting to unpruned grid for atomic number  78.
 Defaulting to unpruned grid for atomic number  78.
 Defaulting to unpruned grid for atomic number  78.
 Inv3:  Mode=1 IEnd=     7612947.
 Iteration    1 A*A^-1 deviation from unit magnitude is 7.22D-15 for    997.
 Iteration    1 A*A^-1 deviation from orthogonality  is 4.38D-15 for    997    430.
 Iteration    1 A^-1*A deviation from unit magnitude is 6.44D-15 for   1292.
 Iteration    1 A^-1*A deviation from orthogonality  is 5.34D-14 for    975    964.
 Error on total polarization charges =  0.00896
 SCF Done:  E(RB3LYP) =  -2114.50929327     A.U. after   16 cycles
            NFock= 16  Conv=0.80D-08     -V/T= 2.0435
   1 Symmetry operations used in ECPInt.
 ECPInt:  NShTT=    3741 NPrTT=   16128 LenC2=    3518 LenP2D=   10782.
 LDataN:  DoStor=T MaxTD1= 7 Len=  274
 D1PCM: PCM CHGder 1st derivatives, ID1Alg=3 FixD1E=F DoIter=F DoCFld=F I1PDM=0.
 Calling FoFJK, ICntrl=      2127 FMM=F ISym2X=0 I1Cent= 0 IOpClX= 0 NMat=1 NMatS=1 NMatT=0.
 Defaulting to unpruned grid for atomic number  78.
 Defaulting to unpruned grid for atomic number  78.
 Defaulting to unpruned grid for atomic number  78.
 Defaulting to unpruned grid for atomic number  78.
 Defaulting to unpruned grid for atomic number  78.
 Defaulting to unpruned grid for atomic number  78.
 Defaulting to unpruned grid for atomic number  78.
 Defaulting to unpruned grid for atomic number  78.
 ***** Axes restored to original set *****
 -------------------------------------------------------------------
 Center     Atomic                   Forces (Hartrees/Bohr)
 Number     Number              X              Y              Z
 -------------------------------------------------------------------
      1       78           0.006422716    0.014187912    0.014466698
      2       17           0.001532684   -0.001568299   -0.017245642
      3        7           0.078486397   -0.072667563   -0.104577172
      4        7          -0.001486829   -0.128685156    0.075587900
      5        8          -0.032977573    0.030067852    0.048057824
      6        8          -0.037441643    0.027006569    0.044733530
      7        8           0.010320431    0.055403385   -0.031478833
      8        8          -0.008932721    0.055941498   -0.032424964
      9       17          -0.068963712   -0.002678092   -0.000766862
     10       17           0.068753475    0.004736429   -0.000224211
     11        7          -0.125811848    0.061851702    0.039837972
     12        8           0.056988060   -0.019961730   -0.016221438
     13        8           0.053110563   -0.023634508   -0.019744801
 -------------------------------------------------------------------
 Cartesian Forces:  Max     0.128685156 RMS     0.050814095

 GradGradGradGradGradGradGradGradGradGradGradGradGradGradGradGradGradGrad
 Berny optimization.
 Using GEDIIS/GDIIS optimizer.
 FormGI is forming the generalized inverse of G from B-inverse, IUseBI=4.
 Internal  Forces:  Max     0.068987965 RMS     0.021947517
 Search for a local minimum.
 Step number   3 out of a maximum of   77
 All quantities printed in internal units (Hartrees-Bohrs-Radians)
 Mixed Optimization -- RFO/linear search
 Update second derivatives using D2CorX and points    2    3
 ITU=  0  1  0
 Use linear search instead of GDIIS.
     Eigenvalues ---    0.00230   0.00230   0.00230   0.02124   0.02312
     Eigenvalues ---    0.02492   0.06412   0.06752   0.08144   0.09020
     Eigenvalues ---    0.11692   0.12584   0.12602   0.16806   0.19378
     Eigenvalues ---    0.20378   0.20399   0.21813   0.24786   0.24965
     Eigenvalues ---    0.24991   0.24997   0.24999   0.25000   0.27229
     Eigenvalues ---    0.44102   0.52948   0.52948   0.52948   0.52948
     Eigenvalues ---    0.53049   0.55421   0.57823
 RFO step:  Lambda=-1.28014726D-01 EMin= 2.29999999D-03
 Quartic linear search produced a step of  0.80194.
 Iteration  1 RMS(Cart)=  0.07809954 RMS(Int)=  0.01620019
 Iteration  2 RMS(Cart)=  0.01645368 RMS(Int)=  0.00477342
 Iteration  3 RMS(Cart)=  0.00017454 RMS(Int)=  0.00477120
 Iteration  4 RMS(Cart)=  0.00000132 RMS(Int)=  0.00477120
 Iteration  5 RMS(Cart)=  0.00000001 RMS(Int)=  0.00477120
 Variable       Old X    -DE/DX   Delta X   Delta X   Delta X     New X
                                 (Linear)    (Quad)   (Total)
    R1        4.44509   0.01720   0.07298   0.02831   0.10129   4.54638
    R2        3.98011   0.01589   0.11738   0.00675   0.12414   4.10425
    R3        4.02006   0.01270   0.13874  -0.01632   0.12242   4.14248
    R4        4.18628   0.06899   0.22760   0.03550   0.26310   4.44938
    R5        4.19011   0.06892   0.22965   0.03466   0.26431   4.45443
    R6        3.94713   0.01894   0.09975   0.02644   0.12618   4.07331
    R7        2.40318  -0.03371  -0.08920  -0.01767  -0.10687   2.29631
    R8        2.40248  -0.03246  -0.08957  -0.01578  -0.10535   2.29713
    R9        2.39526  -0.02814  -0.09344  -0.00368  -0.09712   2.29814
   R10        2.39927  -0.02817  -0.09129  -0.00498  -0.09627   2.30300
   R11        2.39502  -0.03664  -0.09357  -0.02305  -0.11662   2.27840
   R12        2.41272  -0.03311  -0.08410  -0.02110  -0.10520   2.30752
    A1        1.59484  -0.00252   0.01276  -0.01799  -0.00547   1.58937
    A2        1.55618   0.00152  -0.00782   0.01250   0.00463   1.56081
    A3        1.53844  -0.00029  -0.01735   0.00808  -0.00925   1.52919
    A4        1.55754   0.00193  -0.00713   0.01407   0.00679   1.56434
    A5        1.52610  -0.00306  -0.02377  -0.00426  -0.02766   1.49844
    A6        1.55176  -0.00146  -0.01001  -0.00095  -0.01069   1.54107
    A7        1.64263   0.00036   0.03844  -0.02012   0.01846   1.66109
    A8        1.60221  -0.00119   0.01681  -0.01444   0.00231   1.60452
    A9        1.58745   0.00021   0.00914  -0.00545   0.00443   1.59188
   A10        1.60543   0.00367   0.01865   0.00794   0.02698   1.63241
   A11        1.54662   0.00070  -0.01296   0.00989  -0.00324   1.54339
   A12        1.54265   0.00036  -0.01513   0.01080  -0.00444   1.53821
   A13        2.03585  -0.01709   0.06544  -0.06681  -0.01032   2.02554
   A14        1.97795  -0.01316   0.03441  -0.03479  -0.00945   1.96850
   A15        1.90634   0.04002  -0.00462   0.21201   0.19611   2.10245
[...]
 -------------------------------------------------------------------
      1       78           0.000085817   -0.000011953    0.000017602
      2       17           0.000039935    0.000007586   -0.000018979
      3        7          -0.000049385    0.000008226   -0.000028139
      4        7          -0.000030975   -0.000006540    0.000002628
      5        8          -0.000060201   -0.000021836   -0.000022215
      6        8          -0.000001468    0.000014911    0.000001140
      7        8          -0.000022808   -0.000031937    0.000006391
      8        8          -0.000022073    0.000010825   -0.000002660
      9       17          -0.000051304    0.000043959   -0.000033460
     10       17          -0.000034126   -0.000033735    0.000035586
     11        7           0.000063053    0.000010415    0.000018317
     12        8           0.000054502    0.000013288    0.000002028
     13        8           0.000029032   -0.000003207    0.000021761
 -------------------------------------------------------------------
 Cartesian Forces:  Max     0.000085817 RMS     0.000031744
 FormGI is forming the generalized inverse of G from B-inverse, IUseBI=4.

 GradGradGradGradGradGradGradGradGradGradGradGradGradGradGradGradGradGrad
 Berny optimization.
 Internal  Forces:  Max     0.000049692 RMS     0.000013686
 Search for a local minimum.
 Step number   1 out of a maximum of    2
 All quantities printed in internal units (Hartrees-Bohrs-Radians)
 Second derivative matrix not updated -- analytic derivatives used.
 ITU=  0
     Eigenvalues ---    0.00083   0.00180   0.00540   0.02360   0.02597
     Eigenvalues ---    0.04244   0.04745   0.05455   0.05541   0.06471
     Eigenvalues ---    0.06831   0.07980   0.08470   0.08642   0.08999
     Eigenvalues ---    0.09615   0.10005   0.10915   0.11646   0.13384
     Eigenvalues ---    0.14341   0.14787   0.15588   0.22756   0.29839
     Eigenvalues ---    0.32140   0.36011   0.57503   0.58039   0.60024
     Eigenvalues ---    0.82414   0.84362   0.85326
 Angle between quadratic step and forces=  79.12 degrees.
 Linear search not attempted -- first point.
 Iteration  1 RMS(Cart)=  0.00078042 RMS(Int)=  0.00000042
 Iteration  2 RMS(Cart)=  0.00000044 RMS(Int)=  0.00000003
 Variable       Old X    -DE/DX   Delta X   Delta X   Delta X     New X
                                 (Linear)    (Quad)   (Total)
    R1        4.64555   0.00002   0.00000   0.00024   0.00024   4.64579
    R2        4.04974  -0.00001   0.00000  -0.00013  -0.00013   4.04961
    R3        3.97371   0.00001   0.00000   0.00004   0.00004   3.97375
    R4        4.56412   0.00005   0.00000   0.00045   0.00045   4.56458
    R5        4.56052  -0.00004   0.00000  -0.00044  -0.00044   4.56008
    R6        4.03357   0.00000   0.00000   0.00003   0.00003   4.03360
    R7        2.30229  -0.00002   0.00000   0.00001   0.00001   2.30230
    R8        2.30505  -0.00003   0.00000  -0.00005  -0.00005   2.30500
    R9        2.29290   0.00002   0.00000   0.00003   0.00003   2.29293
   R10        2.29752   0.00001   0.00000  -0.00002  -0.00002   2.29750
   R11        2.30259   0.00000   0.00000   0.00001   0.00001   2.30260
   R12        2.30643   0.00000   0.00000  -0.00002  -0.00002   2.30641
    A1        1.53944  -0.00003   0.00000  -0.00044  -0.00044   1.53900
    A2        1.62125   0.00000   0.00000  -0.00010  -0.00010   1.62116
    A3        1.55023   0.00000   0.00000   0.00009   0.00009   1.55032
    A4        1.58385   0.00001   0.00000   0.00036   0.00036   1.58421
    A5        1.60785   0.00003   0.00000   0.00000   0.00000   1.60784
    A6        1.56907   0.00000   0.00000   0.00021   0.00021   1.56928
    A7        1.59080   0.00001   0.00000   0.00042   0.00042   1.59123
    A8        1.53469   0.00001   0.00000   0.00020   0.00020   1.53489
    A9        1.57692  -0.00001   0.00000  -0.00019  -0.00019   1.57673
   A10        1.55210  -0.00001   0.00000   0.00008   0.00008   1.55218
   A11        1.56983   0.00000   0.00000  -0.00019  -0.00019   1.56963
   A12        1.55403  -0.00001   0.00000  -0.00044  -0.00044   1.55359
   A13        2.07758   0.00001   0.00000  -0.00012  -0.00012   2.07745
   A14        2.05666   0.00002   0.00000   0.00019   0.00019   2.05685
   A15        2.14872  -0.00002   0.00000  -0.00007  -0.00007   2.14866
   A16        2.06935  -0.00001   0.00000  -0.00020  -0.00020   2.06915
   A17        2.04494   0.00000   0.00000   0.00015   0.00015   2.04509
   A18        2.16887   0.00001   0.00000   0.00005   0.00005   2.16892
   A19        2.07289  -0.00002   0.00000  -0.00021  -0.00021   2.07268
   A20        2.06066   0.00002   0.00000   0.00020   0.00020   2.06086
   A21        2.14963   0.00000   0.00000   0.00001   0.00001   2.14964
   A22        3.14728   0.00000   0.00000  -0.00044  -0.00044   3.14685
   A23        3.12329  -0.00002   0.00000  -0.00008  -0.00008   3.12321
   A24        3.17148   0.00000   0.00000   0.00000   0.00000   3.17148
   A25        3.12726  -0.00001   0.00000  -0.00011  -0.00011   3.12715
   A26        3.13797   0.00000   0.00000   0.00001   0.00001   3.13798
   A27        3.12424  -0.00002   0.00000  -0.00062  -0.00062   3.12362
    D1        2.19092   0.00000   0.00000  -0.00131  -0.00131   2.18961
    D2       -0.92878   0.00000   0.00000  -0.00121  -0.00121  -0.93000
    D3       -0.93634   0.00001   0.00000  -0.00120  -0.00120  -0.93754
    D4        2.22714   0.00001   0.00000  -0.00111  -0.00111   2.22604
    D5       -2.47093   0.00000   0.00000  -0.00141  -0.00141  -2.47234
    D6        0.69255   0.00000   0.00000  -0.00132  -0.00132   0.69123
    D7        0.64133   0.00000   0.00000  -0.00138  -0.00138   0.63996
    D8       -2.47837   0.00000   0.00000  -0.00129  -0.00129  -2.47966
    D9        2.92532   0.00000   0.00000  -0.00261  -0.00261   2.92271
   D10       -0.21376   0.00000   0.00000  -0.00268  -0.00268  -0.21645
   D11       -0.18755   0.00000   0.00000  -0.00247  -0.00247  -0.19002
   D12        2.95655   0.00000   0.00000  -0.00255  -0.00255   2.95401
   D13        0.66702   0.00001   0.00000   0.00067   0.00067   0.66769
   D14       -2.48183   0.00000   0.00000   0.00060   0.00060  -2.48123
   D15        2.23475   0.00001   0.00000   0.00089   0.00089   2.23563
   D16       -0.91410   0.00000   0.00000   0.00082   0.00082  -0.91329
   D17       -0.92403  -0.00001   0.00000   0.00025   0.00025  -0.92377
   D18        2.21031  -0.00001   0.00000   0.00018   0.00018   2.21049
   D19       -2.47794   0.00001   0.00000   0.00069   0.00069  -2.47725
   D20        0.65640   0.00000   0.00000   0.00062   0.00062   0.65701
   D21        0.74053   0.00000   0.00000  -0.00127  -0.00127   0.73926
   D22       -2.40379   0.00000   0.00000  -0.00137  -0.00137  -2.40516
   D23       -2.41541   0.00000   0.00000  -0.00138  -0.00138  -2.41679
   D24        0.72345  -0.00001   0.00000  -0.00147  -0.00147   0.72198
   D25       -0.88072   0.00000   0.00000  -0.00117  -0.00117  -0.88189
   D26        2.25815   0.00000   0.00000  -0.00127  -0.00127   2.25688
   D27        2.29053   0.00001   0.00000  -0.00119  -0.00119   2.28934
   D28       -0.85379   0.00000   0.00000  -0.00129  -0.00129  -0.85507
         Item               Value     Threshold  Converged?
 Maximum Force            0.000050     0.000450     YES
 RMS     Force            0.000014     0.000300     YES
 Maximum Displacement     0.002298     0.001800     NO 
 RMS     Displacement     0.000780     0.001200     YES
 Predicted change in Energy=-8.100738D-08
 GradGradGradGradGradGradGradGradGradGradGradGradGradGradGradGradGradGrad

 1\1\GINC-NEQC17\Freq\RB3LYP\Gen\Cl3N3O6Pt1(2-)\DIEGO\18-Aug-2021\0\\#N
  Geom=AllCheck Guess=TCheck SCRF=Check GenChk RB3LYP/ChkBas Freq\\Estr
 utura 50\\-2,1\Pt,-0.3480125968,0.2751148571,-0.065088155\Cl,-0.247288
 1986,0.5497702331,-2.5059364444\N,-0.0402771349,-1.8255948674,-0.35644
 27672\N,-0.4060728029,0.0561246267,2.0254683914\O,0.8793412233,-2.3746
 539057,0.2241939106\O,-0.7892375478,-2.4103061618,-1.1213174116\O,0.34
 96283063,-0.7371037171,2.5469288896\O,-1.1992883361,0.7477581299,2.634
 2408715\Cl,-2.7373859562,-0.0770052531,-0.0806289812\Cl,2.0325973421,0
 .6604035022,0.0265127125\N,-0.6606926667,2.3715809936,0.1859808748\O,-
 1.4280836656,2.9443981057,-0.5674609257\O,-0.0598779262,2.9382368368,1
 .0846272146\\Version=EM64L-G09RevD.01\State=1-A\HF=-2114.6617079\RMSD=
 3.376e-09\RMSF=3.174e-05\ZeroPoint=0.0393624\Thermal=0.0554732\Dipole=
 0.0065103,-0.1048734,0.5211863\DipoleDeriv=1.2152837,0.1337809,-0.2024
 186,0.1409207,1.1148966,0.0219959,-0.201574,0.0320251,1.0260446,-0.236
 0526,-0.0099767,0.0919998,-0.0103165,-0.2856706,0.1406573,0.0713026,0.
 1558726,-1.5479384,1.5314164,-0.2795761,0.803796,-0.2681159,2.4074959,
 0.4092868,0.8458231,0.3979588,1.1272815,1.3799896,-0.8251309,-0.091251
 9,-0.8809831,1.2300397,-0.2023705,-0.1434978,-0.2215004,2.930947,-0.98
 33309,0.6387313,-0.3518766,0.5957217,-1.7496623,0.063573,-0.3558524,0.
 056137,-0.5381545,-0.7497357,-0.2405166,-0.4091786,-0.1898123,-1.79613
 82,-0.574475,-0.4133828,-0.6033598,-0.8131021,-0.6968796,0.4225102,-0.
 377662,0.4075569,-0.7586805,0.515108,-0.2654263,0.4795809,-1.7704594,-
 0.7731446,0.3739738,0.5194186,0.4219695,-0.6039727,-0.2737649,0.422432
 4,-0.1893815,-1.8264341,-1.2472713,-0.1624675,-0.0633084,-0.1608504,-0
 .2073614,0.0013167,0.0189376,0.0265629,-0.1648068,-1.2397947,-0.182971
 9,0.0444732,-0.1895582,-0.2045653,0.0100754,-0.0216329,-0.0183286,-0.1
 745807,1.2272356,-0.3165612,0.8703587,-0.3006147,2.42121,0.1456721,0.9
 084463,0.2215241,1.421812,-0.8162053,0.597684,-0.4380658,0.5349628,-1.
 7998585,0.2623664,-0.4419282,0.2573593,-0.7644272,-0.6115105,-0.149479
 1,-0.3962846,-0.1008806,-1.7677327,-0.5194413,-0.4236475,-0.5944504,-0
 .9061821\Polar=184.0112416,-10.0364645,188.2763964,11.8096069,4.157697
 5,188.5208965\PG=C01 [X(Cl3N3O6Pt1)]\NImag=0\\0.33513422,0.00475765,0.
 21459684,0.02173939,-0.00294895,0.27250629,-0.02050021,0.00003480,0.00
 090826,0.01605779,0.00036189,-0.01615210,0.00697194,0.00045140,0.01433
 224,-0.00001020,0.00689298,-0.07437125,-0.00273817,-0.00928854,0.08813
 624,-0.04922045,0.00359481,0.01062441,-0.00084555,-0.00311269,-0.00052
 618,0.61312336,0.00110559,-0.06818372,0.00854087,0.00002531,-0.0050077
 3,0.00062881,-0.05581927,0.55298951,0.01086934,0.00169048,-0.05290652,
 -0.00153110,0.00038639,-0.00145847,0.36123899,0.07246685,0.45214540,-0
 .04512601,-0.01357292,-0.00203709,0.00801939,0.00059046,0.00057442,0.0
 0688844,-0.00157232,0.00423869,0.56583971,-0.01391868,-0.04439119,0.00
 186078,0.00093534,0.00848322,-0.00111530,-0.00613688,0.00196291,-0.010
 29768,-0.38690175,0.53573309,-0.00004336,0.00353056,-0.06833817,-0.001
 12461,-0.00171597,0.02192350,0.00749433,-0.02417563,-0.00494784,-0.029
 84256,-0.01986984,0.55684237,-0.00260842,0.00172768,-0.01119044,0.0005
 9529,0.00070062,0.00051639,-0.33970890,0.18732766,-0.18204902,-0.00381
 398,0.00290558,-0.00554787,0.42531209,0.02002026,0.00110165,0.01072990
 ,-0.00023605,0.00075380,0.00030302,0.18990230,-0.23929766,0.09752109,0
 .00099357,-0.00011816,0.00771183,-0.19162407,0.20003367,-0.00788048,-0
 .00089598,0.00965786,0.00050099,0.00006716,0.00074773,-0.18123028,0.09
 537474,-0.16507618,-0.00555993,0.00639139,-0.00406795,0.27098351,-0.10
 330575,0.20993331,0.00324017,-0.00002649,-0.00893150,-0.00068799,0.001
 88994,0.00031732,-0.23809171,-0.13443024,-0.19035143,-0.00219215,0.002
 03917,-0.00004336,-0.08192857,-0.01469865,-0.08334108,0.31760515,-0.01
 580679,0.00006805,-0.01969165,-0.00058721,-0.00020031,0.00143610,-0.13
 767256,-0.25114305,-0.16743918,0.00019213,-0.00088611,0.00777238,0.000
 13919,0.05247798,0.00963615,0.14856328,0.21161868,-0.01247830,-0.00367
 071,0.00148664,0.00116905,0.00389199,-0.00012851,-0.19204005,-0.166055
 43,-0.24709893,-0.00082984,0.00137120,0.00263865,-0.07926246,-0.001763
 61,-0.04672027,0.27965942,0.17358012,0.29359143,0.00336458,0.01025448,
 -0.00281340,-0.00046781,-0.00015879,-0.00502222,-0.00516694,0.00436868
 ,-0.00176805,-0.25615196,0.21257911,-0.13608407,0.00213650,-0.00207909
 ,0.00404001,0.00143132,-0.00119338,0.00021426,0.31922779,0.01280592,0.
 00250722,0.00625093,-0.00132494,-0.00152008,0.00596358,0.00701283,-0.0
 0519147,0.00309974,0.21139895,-0.27663455,0.15288947,-0.00403637,0.001
 15185,-0.00787371,-0.00223005,0.00080798,-0.00089054,-0.30432241,0.335
 39775,-0.01650324,0.01811786,-0.00564912,0.00225023,0.00007034,-0.0145
 0061,-0.00149270,0.00704703,0.00331508,-0.14116784,0.15818057,-0.22831
 142,0.00172992,-0.00550488,-0.00337195,-0.00040759,-0.00317518,-0.0018
 2394,0.14325869,-0.15841677,0.19779622,0.00244186,0.01129708,0.0061280
 1,-0.00104089,-0.00149981,0.00574688,-0.00198327,-0.00169821,-0.001612
 31,-0.26999248,0.18731561,0.16632166,0.00093917,0.00023535,0.00219618,
 0.00096897,0.00072966,0.00053387,-0.06603824,0.08208450,0.01174545,0.3
 3493791,0.00905220,0.00528138,-0.00351238,-0.00045434,-0.00065081,-0.0
 0372784,0.00166133,0.00050098,0.00208059,0.18681451,-0.21793698,-0.136
 14981,-0.00083760,-0.00000314,-0.00199592,-0.00062405,0.00010731,-0.00
 027137,0.08347674,-0.05916018,-0.01524238,-0.27661136,0.27422616,0.017
 82141,-0.01627856,-0.00971421,-0.00054226,0.00304334,-0.01481937,-0.00
 161201,0.00775661,0.00097142,0.17326536,-0.14173277,-0.26135502,0.0014
 2138,-0.00263634,0.00035764,-0.00013545,-0.00272054,-0.00067550,-0.004
 41394,0.00000150,0.04987763,-0.18547014,0.15413771,0.23411769,-0.09034
 018,-0.01173080,-0.00263217,-0.00052659,-0.00086983,0.00246187,-0.0006
 3645,0.00199279,0.00100799,-0.00160035,-0.00068690,-0.00119449,-0.0000
 0199,0.00023481,0.00006700,0.00014050,0.00120948,0.00017302,0.00002932
 ,0.00001049,-0.00079639,-0.00012698,0.00036915,-0.00193063,0.10280751,
 -0.01149503,-0.01303623,0.00035813,-0.00084994,-0.00011182,0.00010668,
 0.00082893,-0.00428086,-0.00401692,0.00194824,-0.00059677,-0.00023958,
 0.00052513,0.00051696,0.00111504,0.00430174,0.00096976,0.00123110,-0.0
 0069465,0.00048633,-0.00004950,-0.00115569,0.00045322,-0.00128154,0.01
 323561,0.01719343,-0.00101958,0.00018545,-0.01368120,0.00459186,0.0007
 9429,-0.00232837,-0.00138310,-0.00158968,-0.00137615,-0.00195612,-0.00
 385511,-0.00687331,0.00056456,0.00021099,0.00062781,0.00232750,-0.0008
 9062,0.00041745,0.00004441,0.00092044,0.00110694,-0.00529736,0.0011144
 4,0.00057737,0.00265174,0.00173011,0.01894310,-0.09097743,-0.01127622,
 -0.00366860,-0.00066276,0.00017120,-0.00239195,0.00037864,0.00002812,-
 0.00015892,-0.00061754,-0.00035078,-0.00015348,0.00059155,-0.00130839,
 -0.00029162,0.00026902,-0.00037369,0.00020091,0.00058655,-0.00044078,0
 .00136213,0.00001518,-0.00017953,0.00087395,-0.00903993,-0.00218534,-0
 .00023341,0.10211501,-0.01184736,-0.01315309,-0.00030239,0.00053715,0.
 00135839,0.00007800,0.00123060,-0.00538579,0.00263650,0.00078390,-0.00
 137308,0.00088513,-0.00471939,-0.00198261,-0.00107897,-0.00072055,0.00
 066324,-0.00087678,-0.00135400,0.00061785,0.00051994,-0.00043857,0.000
 46873,-0.00001970,-0.00209343,0.00304747,-0.00006914,0.01237229,0.0182
 9025,-0.00443698,-0.00011734,-0.01418524,-0.00514018,-0.00036850,-0.00
 245467,-0.00099615,-0.00005439,-0.00024266,0.00245097,0.00405743,-0.00
 449905,-0.00004878,0.00083340,0.00005945,0.00029792,-0.00002001,0.0002
 5079,0.00302088,-0.00159630,0.00171877,-0.00043748,-0.00069224,0.00083
 972,0.00032524,-0.00001593,0.00341338,0.00303369,-0.00013734,0.0156919
 3,-0.05522745,0.00033015,0.01333177,-0.00151147,0.00397812,0.00055702,
 0.02030019,0.00274518,-0.00324555,-0.00322256,0.00423394,-0.00074925,-
 0.00089798,-0.00532933,0.00164543,-0.00281429,0.00131779,0.00172031,0.
 00156079,-0.00080450,0.00043398,0.00075052,-0.00427436,0.00006908,0.00
 017930,-0.00070255,-0.00145440,-0.00063344,0.00227002,-0.00113430,0.46
 144916,0.00030481,-0.06813129,-0.00863734,0.00133493,-0.00311994,-0.00
 115025,0.00235740,0.00807676,-0.00272287,-0.00252297,-0.00527636,0.025
 77030,-0.00407704,0.00706175,0.00030427,0.00098879,0.00742558,0.004074
 58,-0.00125692,0.00274580,-0.00789697,0.00336274,-0.00463014,-0.008537
 28,0.00028203,-0.00537932,0.00005632,0.00176502,-0.00408001,-0.0012574
 6,-0.06636657,0.56362047,0.01381599,-0.00360425,-0.04646549,-0.0014868
 9,0.00019876,-0.00129163,-0.00347749,-0.00254514,0.02050475,-0.0054836
 5,0.01039687,0.00304699,0.00180633,-0.00106687,-0.00362976,0.00161572,
 0.00401769,-0.00195901,0.00138871,-0.00087817,-0.00170819,0.00156328,-
 0.00444460,-0.00326188,-0.00005338,0.00249013,-0.00095545,0.00158571,-
 0.00417188,-0.00164727,0.36328566,0.04604955,0.59838606,0.00236800,0.0
 0344729,-0.01394990,0.00094012,-0.00142787,0.00038022,-0.00175360,-0.0
 0432253,0.00164392,0.00107759,-0.00140913,0.00216257,-0.00231945,0.005
 30530,-0.00101240,0.00202492,0.00546990,0.00213697,-0.00056730,0.00022
 091,-0.00094200,0.00005754,0.00136705,-0.00044608,-0.00100724,-0.00373
 642,0.00064573,-0.00005565,-0.00008663,0.00051510,-0.25100946,0.164678
 80,-0.19660166,0.29944254,0.01733054,0.00012816,0.01803619,0.00013166,
 0.00145206,0.00000480,-0.00438066,0.00781855,-0.00107404,0.00108792,0.
 00032587,-0.00819001,0.00570044,-0.00993856,0.00148616,-0.00252585,-0.
 01215036,-0.00539403,0.00022462,-0.00037745,0.00308675,-0.00146331,0.0
 0077140,0.00349653,-0.00128850,-0.00000949,0.00126497,0.00025707,0.000
 70111,0.00012384,0.16688787,-0.25105474,0.14005690,-0.17119191,0.20892
 055,-0.00961251,0.00021259,0.00241630,0.00248609,-0.00350229,-0.000026
 03,0.00182020,-0.00120730,-0.00288222,0.00055033,-0.00140065,0.0009636
 1,-0.00175085,0.00274019,0.00019195,0.00051302,0.00273055,0.00208264,-
 0.00009696,-0.00011833,-0.00000807,0.00037745,0.00107623,-0.00013191,-
 0.00017258,-0.00083436,-0.00041420,-0.00009541,0.00095511,0.00069293,-
 0.19567622,0.13753268,-0.24231209,0.28495332,-0.15062441,0.31907961,0.
 00745132,0.00116250,-0.00750876,0.00063070,-0.00107465,0.00013458,-0.0
 0328376,0.00024923,0.00171748,0.00089190,-0.00060463,-0.00119551,0.001
 70468,-0.00141598,-0.00011733,0.00003465,-0.00198780,-0.00119716,0.000
 05539,-0.00037455,0.00052934,-0.00092928,0.00024027,0.00109932,0.00012
 309,-0.00002003,0.00051818,-0.00196920,0.00406598,0.00255008,-0.168923
 30,-0.10085101,-0.17795834,-0.04919799,-0.01076988,-0.08329588,0.21341
 180,-0.01267099,-0.00063568,-0.01765603,0.00000190,0.00038309,-0.00013
 204,0.00053385,0.00714156,0.00566905,0.00076028,0.00070812,-0.00821881
 ,0.00626816,-0.01175754,0.00077543,-0.00252703,-0.00975876,-0.00522652
 ,0.00015561,-0.00083106,0.00326318,-0.00215797,0.00057206,0.00477103,-
 0.00066488,0.00074732,0.00012754,0.00152105,0.00082754,-0.00075517,-0.
 10428576,-0.24725855,-0.18649898,0.00168524,0.05341289,0.01243998,0.11
 138054,0.20644900,-0.01226148,-0.00311412,-0.00075588,0.00065671,-0.00
 054888,0.00057146,0.00158002,0.00381268,-0.00094767,0.00579727,-0.0039
 8690,-0.00702237,0.00282734,-0.00577297,0.00129036,-0.00152048,-0.0052
 3582,-0.00206144,-0.00176833,0.00064815,0.00155866,-0.00179550,0.00762
 757,0.00321642,0.00009278,-0.00059337,0.00054262,-0.00006300,0.0015815
 2,0.00036193,-0.17878354,-0.18358554,-0.31870704,-0.07948580,-0.002273
 66,-0.07965253,0.26472400,0.19144134,0.40160547\\-0.00008582,0.0000119
 5,-0.00001760,-0.00003994,-0.00000759,0.00001898,0.00004938,-0.0000082
 3,0.00002814,0.00003097,0.00000654,-0.00000263,0.00006020,0.00002184,0
 .00002222,0.00000147,-0.00001491,-0.00000114,0.00002281,0.00003194,-0.
 00000639,0.00002207,-0.00001082,0.00000266,0.00005130,-0.00004396,0.00
 003346,0.00003413,0.00003373,-0.00003559,-0.00006305,-0.00001041,-0.00
 001832,-0.00005450,-0.00001329,-0.00000203,-0.00002903,0.00000321,-0.0
 0002176\\\@


 IT IS UNWORTHY OF EXCELLENT MEN TO LOSE HOURS LIKE SLAVES IN THE LABOR
 OF CALCULATION WHICH COULD BE SAFELY RELEGATED TO ANYONE ELSE
 IF A MACHINE WERE USED.
    -- G.W. VON LEIBNIZ
 Job cpu time:       0 days  0 hours 18 minutes 19.7 seconds.
 File lengths (MBytes):  RWF=    135 Int=      0 D2E=      0 Chk=      8 Scr=      1
 Normal termination of Gaussian 09 at Wed Aug 18 09:04:12 2021.
