 Entering Gaussian System, Link 0=g09
 Input=/home/nqtcm/milena/51_D2O.com
 Output=/home/nqtcm/milena/51_D2O.log
 Initial command:
 /scr/programas/g09/l1.exe "/scr/nqtcm/Gau-32553.inp" -scrdir="/scr/nqtcm/"
 Entering Link 1 = /scr/programas/g09/l1.exe PID=     32555.
  
 Copyright (c) 1988,1990,1992,1993,1995,1998,2003,2009,2013,
            Gaussian, Inc.  All Rights Reserved.
  
 This is part of the Gaussian(R) 09 program.  It is based on
 the Gaussian(R) 03 system (copyright 2003, Gaussian, Inc.),
 the Gaussian(R) 98 system (copyright 1998, Gaussian, Inc.),
 the Gaussian(R) 94 system (copyright 1995, Gaussian, Inc.),
 the Gaussian 92(TM) system (copyright 1992, Gaussian, Inc.),
 the Gaussian 90(TM) system (copyright 1990, Gaussian, Inc.),
 the Gaussian 88(TM) system (copyright 1988, Gaussian, Inc.),
 the Gaussian 86(TM) system (copyright 1986, Carnegie Mellon
 University), and the Gaussian 82(TM) system (copyright 1983,
 Carnegie Mellon University). Gaussian is a federally registered
 trademark of Gaussian, Inc.
  
 This software contains proprietary and confidential information,
 including trade secrets, belonging to Gaussian, Inc.
  
 This software is provided under written license and may be
 used, copied, transmitted, or stored only in accord with that
 written license.
  
 The following legend is applicable only to US Government
 contracts under FAR:
  
                    RESTRICTED RIGHTS LEGEND
  
 Use, reproduction and disclosure by the US Government is
 subject to restrictions as set forth in subparagraphs (a)
 and (c) of the Commercial Computer Software - Restricted
 Rights clause in FAR 52.227-19.
  
 Gaussian, Inc.
 340 Quinnipiac St., Bldg. 40, Wallingford CT 06492
  
  
 ---------------------------------------------------------------
 Warning -- This program may not be used in any manner that
 competes with the business of Gaussian, Inc. or will provide
 assistance to any competitor of Gaussian, Inc.  The licensee
 of this program is prohibited from giving any competitor of
 Gaussian, Inc. access to this program.  By using this program,
 the user acknowledges that Gaussian, Inc. is engaged in the
 business of creating and licensing software in the field of
 computational chemistry and represents and warrants to the
 licensee that it is not a competitor of Gaussian, Inc. and that
 it will not use this program in any manner prohibited above.
 ---------------------------------------------------------------
  

 Cite this work as:
 Gaussian 09, Revision D.01,
 M. J. Frisch, G. W. Trucks, H. B. Schlegel, G. E. Scuseria, 
 M. A. Robb, J. R. Cheeseman, G. Scalmani, V. Barone, B. Mennucci, 
 G. A. Petersson, H. Nakatsuji, M. Caricato, X. Li, H. P. Hratchian, 
 A. F. Izmaylov, J. Bloino, G. Zheng, J. L. Sonnenberg, M. Hada, 
 M. Ehara, K. Toyota, R. Fukuda, J. Hasegawa, M. Ishida, T. Nakajima, 
 Y. Honda, O. Kitao, H. Nakai, T. Vreven, J. A. Montgomery, Jr., 
 J. E. Peralta, F. Ogliaro, M. Bearpark, J. J. Heyd, E. Brothers, 
 K. N. Kudin, V. N. Staroverov, T. Keith, R. Kobayashi, J. Normand, 
 K. Raghavachari, A. Rendell, J. C. Burant, S. S. Iyengar, J. Tomasi, 
 M. Cossi, N. Rega, J. M. Millam, M. Klene, J. E. Knox, J. B. Cross, 
 V. Bakken, C. Adamo, J. Jaramillo, R. Gomperts, R. E. Stratmann, 
 O. Yazyev, A. J. Austin, R. Cammi, C. Pomelli, J. W. Ochterski, 
 R. L. Martin, K. Morokuma, V. G. Zakrzewski, G. A. Voth, 
 P. Salvador, J. J. Dannenberg, S. Dapprich, A. D. Daniels, 
 O. Farkas, J. B. Foresman, J. V. Ortiz, J. Cioslowski, 
 and D. J. Fox, Gaussian, Inc., Wallingford CT, 2013.
 
 ******************************************
 Gaussian 09:  EM64L-G09RevD.01 24-Apr-2013
                10-May-2022 
 ******************************************
 %mem=7gb
 %nproc=4
 Will use up to    4 processors via shared memory.
 -----------------------------------------------------------------
 #b3lyp/gen pseudo=read opt=(loose,cartesian) scrf=(solvent=water)
 -----------------------------------------------------------------
 1/7=-1,10=7,14=-1,18=10,26=3,38=1/1,3;
 2/12=2,17=6,18=5,29=2,40=1/2;
 3/5=7,11=2,16=1,17=8,25=1,30=1,70=2201,71=1,72=1,74=-5/1,2,3;
 4//1;
 5/5=2,38=5,53=1/2;
 6/7=2,8=2,9=2,10=2,28=1/1;
 7/7=1,29=1/1,2,3,16;
 1/7=-1,10=7,14=-1,18=10,26=3/3(2);
 2/29=1/2;
 99/12=1/99;
 2/29=1/2;
 3/5=7,6=1,11=2,16=1,17=8,25=1,30=1,70=2205,71=1,72=1,74=-5,82=7/1,2,3;
 4/5=5,16=3,69=1/1;
 5/5=2,38=5,53=1/2;
 7/7=1/1,2,3,16;
 1/7=-1,14=-1,18=10,26=3/3(-5);
 2/29=1/2;
 6/7=2,8=2,9=2,10=2,19=2,28=1/1;
 99/9=1,12=1/99;
 ------------
 Estrutura 51
 ------------
 Symbolic Z-matrix:
 Charge = -2 Multiplicity = 1
 Pt                   -0.21344   0.05724  -0.0482 
 N                    -0.12712  -0.23685   2.02871 
 N                     0.19192   2.14789   0.15563 
 O                     0.67851   0.39811   2.68408 
 O                    -0.90628  -1.03518   2.51886 
 O                     1.21663   2.51065   0.70909 
 O                    -0.6121    2.93871  -0.31498 
 Br                    2.23967  -0.45754  -0.29499 
 N                    -0.63288  -2.0141   -0.30905 
 O                    -0.02469  -2.82796   0.37009 
 O                    -1.47208  -2.3432   -1.13205 
 Cl                   -2.5437    0.4807    0.20701 
 Cl                   -0.32709   0.40997  -2.42605 
 

 GradGradGradGradGradGradGradGradGradGradGradGradGradGradGradGradGradGrad
 Berny optimization.
 Initialization pass.
 No Z-matrix variables, so optimization will use Cartesian coordinates.
 Trust Radius=3.00D-01 FncErr=1.00D-07 GrdErr=1.00D-06
 Number of steps in this run=     49 maximum allowed number of steps=    100.
 GradGradGradGradGradGradGradGradGradGradGradGradGradGradGradGradGradGrad

 ---------------------------------------------------------------------------------------------------
                            Z-MATRIX (ANGSTROMS AND DEGREES)
   CD    Cent   Atom    N1       Length/X        N2       Alpha/Y        N3        Beta/Z          J
 ---------------------------------------------------------------------------------------------------
      1      1  Pt       0  -0.213442          0.057240         -0.048198
      2      2  N        0  -0.127116         -0.236852          2.028713
      3      3  N        0   0.191916          2.147885          0.155625
      4      4  O        0   0.678508          0.398113          2.684082
      5      5  O        0  -0.906279         -1.035179          2.518856
      6      6  O        0   1.216632          2.510652          0.709092
      7      7  O        0  -0.612100          2.938714         -0.314983
      8      8  Br       0   2.239668         -0.457535         -0.294988
      9      9  N        0  -0.632878         -2.014098         -0.309053
     10     10  O        0  -0.024691         -2.827959          0.370087
     11     11  O        0  -1.472080         -2.343204         -1.132052
     12     12  Cl       0  -2.543695          0.480702          0.207009
     13     13  Cl       0  -0.327089          0.409965         -2.426047
 ---------------------------------------------------------------------------------------------------
                         Z-Matrix orientation:                         
 ---------------------------------------------------------------------
 Center     Atomic      Atomic             Coordinates (Angstroms)
 Number     Number       Type             X           Y           Z
 ---------------------------------------------------------------------
      1         78           0       -0.213442    0.057240   -0.048198
      2          7           0       -0.127116   -0.236852    2.028713
      3          7           0        0.191916    2.147885    0.155625
      4          8           0        0.678508    0.398113    2.684082
      5          8           0       -0.906279   -1.035179    2.518856
      6          8           0        1.216632    2.510652    0.709092
      7          8           0       -0.612100    2.938714   -0.314983
      8         35           0        2.239668   -0.457535   -0.294988
      9          7           0       -0.632878   -2.014098   -0.309053
     10          8           0       -0.024691   -2.827959    0.370087
     11          8           0       -1.472080   -2.343204   -1.132052
     12         17           0       -2.543695    0.480702    0.207009
     13         17           0       -0.327089    0.409965   -2.426047
 ---------------------------------------------------------------------
                    Distance matrix (angstroms):
                    1          2          3          4          5
     1  Pt   0.000000
     2  N    2.099405   0.000000
     3  N    2.139312   3.049133   0.000000
     4  O    2.894326   1.217259   3.113128   0.000000
     5  O    2.874573   1.218467   4.113732   2.143169   0.000000
     6  O    2.939019   3.331041   1.219823   2.941595   4.511642
     7  O    2.921129   3.976473   1.222016   4.136993   4.889684
     8  Br   2.518660   3.324147   3.344332   3.470477   4.260091
     9  N    2.129416   2.979857   4.268292   4.061693   3.005012
    10  O    2.921466   3.078208   4.985172   4.031948   2.934019
    11  O    2.919082   4.029402   4.959524   5.167468   3.919208
    12  Cl   2.382127   3.110200   3.204014   4.065133   3.213046
    13  Cl   2.406553   4.505913   3.155117   5.208146   5.184204
                    6          7          8          9         10
     6  O    0.000000
     7  O    2.139212   0.000000
     8  Br   3.296197   4.434804   0.000000
     9  N    4.993062   4.952859   3.267202   0.000000
    10  O    5.491500   5.836856   3.344930   1.222085   0.000000
    11  O    5.846272   5.413485   4.246587   1.220614   2.141575
    12  Cl   4.302655   3.169441   4.900291   3.184583   4.161636
    13  Cl   4.077384   3.306417   3.447058   3.232840   4.288818
                   11         12         13
    11  O    0.000000
    12  Cl   3.303920   0.000000
    13  Cl   3.250441   3.442576   0.000000
 Stoichiometry    BrCl2N3O6Pt(2-)
 Framework group  C1[X(BrCl2N3O6Pt)]
 Deg. of freedom    33
 Full point group                 C1      NOp   1
 Largest Abelian subgroup         C1      NOp   1
 Largest concise Abelian subgroup C1      NOp   1
                         Standard orientation:                         
 ---------------------------------------------------------------------
 Center     Atomic      Atomic             Coordinates (Angstroms)
 Number     Number       Type             X           Y           Z
 ---------------------------------------------------------------------
      1         78           0       -0.213442    0.057241   -0.048198
      2          7           0       -0.127116   -0.236852    2.028713
      3          7           0        0.191921    2.147885    0.155625
      4          8           0        0.678509    0.398112    2.684082
      5          8           0       -0.906281   -1.035177    2.518856
      6          8           0        1.216638    2.510650    0.709092
      7          8           0       -0.612094    2.938715   -0.314983
      8         35           0        2.239667   -0.457540   -0.294988
      9          7           0       -0.632882   -2.014097   -0.309053
     10          8           0       -0.024697   -2.827959    0.370087
     11          8           0       -1.472085   -2.343201   -1.132052
     12         17           0       -2.543694    0.480708    0.207009
     13         17           0       -0.327088    0.409966   -2.426047
 ---------------------------------------------------------------------
 Rotational constants (GHZ):      0.4397556      0.4043476      0.3733645
 General basis read from cards:  (5D, 7F)
 ======================================================================================================
                                       Pseudopotential Parameters
 ======================================================================================================
  Center     Atomic      Valence      Angular      Power
  Number     Number     Electrons     Momentum     of R      Exponent        Coefficient   SO-Coeffient
 ======================================================================================================
    1         78           18
                                      G and up 
                                                     1      728.9394056       -0.16192680    0.00000000
                                                     2      320.6567800    -1320.28738520    0.00000000
                                                     2       52.8680174     -298.31781350    0.00000000
                                                     2       12.0280128      -87.58370650    0.00000000
                                                     2        3.5238913       -8.14932740    0.00000000
                                      S - G
                                                     0      409.4437358        2.73342180    0.00000000
                                                     1      274.5419231       59.70243290    0.00000000
                                                     2      127.5658570      891.45895500    0.00000000
                                                     2       32.9036631      368.44676560    0.00000000
                                                     2        5.0593880      238.02630900    0.00000000
                                                     2        4.1506556     -107.05564540    0.00000000
                                      P - G
                                                     0      466.1728892        1.88785680    0.00000000
                                                     1      120.7888259       76.01386290    0.00000000
                                                     2       36.4118791      343.55111160    0.00000000
                                                     2        5.6985408      119.49117860    0.00000000
                                      D - G
                                                     0      249.5650763        2.93436780    0.00000000
                                                     1      126.6678585       59.33065710    0.00000000
                                                     2       63.1430586      452.44451940    0.00000000
                                                     2       17.9059470      210.47694790    0.00000000
                                                     2        4.2239373       58.62541120    0.00000000
                                      F - G
                                                     0      121.8158799        3.95342530    0.00000000
                                                     1       60.8757030       53.85551820    0.00000000
                                                     2       31.4767147      247.43051330    0.00000000
                                                     2        9.8811751      127.81879760    0.00000000
                                                     2        2.7319874       15.37720460    0.00000000
    2          7
                                   No pseudopotential on this center.
    3          7
                                   No pseudopotential on this center.
    4          8
                                   No pseudopotential on this center.
    5          8
                                   No pseudopotential on this center.
    6          8
                                   No pseudopotential on this center.
    7          8
                                   No pseudopotential on this center.
    8         35
                                   No pseudopotential on this center.
    9          7
                                   No pseudopotential on this center.
   10          8
                                   No pseudopotential on this center.
   11          8
                                   No pseudopotential on this center.
   12         17
                                   No pseudopotential on this center.
   13         17
                                   No pseudopotential on this center.
 ======================================================================================================
 There are   232 symmetry adapted cartesian basis functions of A   symmetry.
 There are   216 symmetry adapted basis functions of A   symmetry.
   216 basis functions,   422 primitive gaussians,   232 cartesian basis functions
    79 alpha electrons       79 beta electrons
       nuclear repulsion energy      1809.9402888370 Hartrees.
 NAtoms=   13 NActive=   13 NUniq=   13 SFac= 1.00D+00 NAtFMM=   60 NAOKFM=F Big=F
 Integral buffers will be    131072 words long.
 Raffenetti 2 integral format.
 Two-electron integral symmetry is turned on.
 ------------------------------------------------------------------------------
 Polarizable Continuum Model (PCM)
 =================================
 Model                : PCM (using non-symmetric T matrix).
 Atomic radii         : UFF (Universal Force Field).
 Polarization charges : Total charges.
 Charge compensation  : None.
 Solution method      : On-the-fly selection.
 Cavity type          : Scaled VdW (van der Waals Surface) (Alpha=1.100).
 Cavity algorithm     : GePol (No added spheres)
                        Default sphere list used, NSphG=   13.
                        Lebedev-Laikov grids with approx.  5.0 points / Ang**2.
                        Smoothing algorithm: Karplus/York (Gamma=1.0000).
                        Polarization charges: spherical gaussians, with
                                              point-specific exponents (IZeta= 3).
                        Self-potential: point-specific (ISelfS= 7).
                        Self-field    : sphere-specific E.n sum rule (ISelfD= 2).
 1st derivatives      : Analytical E(r).r(x)/FMM algorithm (CHGder, D1EAlg=3).
                        Cavity 1st derivative terms included.
 Solvent              : Water, Eps=  78.355300 Eps(inf)=   1.777849
 ------------------------------------------------------------------------------
 Spheres list:
 ISph  on   Nord     Re0    Alpha      Xe            Ye            Ze
    1  Pt      1    1.3770  1.100     -0.213442      0.057241     -0.048198
    2   N      2    1.8300  1.100     -0.127116     -0.236852      2.028713
    3   N      3    1.8300  1.100      0.191921      2.147885      0.155625
    4   O      4    1.7500  1.100      0.678509      0.398112      2.684082
    5   O      5    1.7500  1.100     -0.906281     -1.035177      2.518856
    6   O      6    1.7500  1.100      1.216638      2.510650      0.709092
    7   O      7    1.7500  1.100     -0.612094      2.938715     -0.314983
    8  Br      8    2.0945  1.100      2.239667     -0.457540     -0.294988
    9   N      9    1.8300  1.100     -0.632882     -2.014097     -0.309053
   10   O     10    1.7500  1.100     -0.024697     -2.827959      0.370087
   11   O     11    1.7500  1.100     -1.472085     -2.343201     -1.132052
   12  Cl     12    1.9735  1.100     -2.543694      0.480708      0.207009
   13  Cl     13    1.9735  1.100     -0.327088      0.409966     -2.426047
 ------------------------------------------------------------------------------
 One-electron integrals computed using PRISM.
   1 Symmetry operations used in ECPInt.
 ECPInt:  NShTT=    4095 NPrTT=   18359 LenC2=    3819 LenP2D=   11999.
 LDataN:  DoStor=T MaxTD1= 6 Len=  172
 NBasis=   216 RedAO= T EigKep=  5.17D-03  NBF=   216
 NBsUse=   216 1.00D-06 EigRej= -1.00D+00 NBFU=   216
 Defaulting to unpruned grid for atomic number  78.
 ExpMin= 2.90D-02 ExpMax= 1.13D+05 ExpMxC= 1.70D+04 IAcc=3 IRadAn=         5 AccDes= 0.00D+00
 Harris functional with IExCor=  402 and IRadAn=       5 diagonalized for initial guess.
 HarFok:  IExCor=  402 AccDes= 0.00D+00 IRadAn=         5 IDoV= 1 UseB2=F ITyADJ=14
 ICtDFT=  3500011 ScaDFX=  1.000000  1.000000  1.000000  1.000000
 Defaulting to unpruned grid for atomic number  78.
 Defaulting to unpruned grid for atomic number  78.
 Defaulting to unpruned grid for atomic number  78.
 Defaulting to unpruned grid for atomic number  78.
 FoFCou: FMM=F IPFlag=           0 FMFlag=      100000 FMFlg1=           0
         NFxFlg=           0 DoJE=T BraDBF=F KetDBF=T FulRan=T
         wScrn=  0.000000 ICntrl=     500 IOpCl=  0 I1Cent=   200000004 NGrid=           0
         NMat0=    1 NMatS0=      1 NMatT0=    0 NMatD0=    1 NMtDS0=    0 NMtDT0=    0
 Petite list used in FoFCou.
 Keep R1 ints in memory in canonical form, NReq=281272614.
 Requested convergence on RMS density matrix=1.00D-08 within 128 cycles.
 Requested convergence on MAX density matrix=1.00D-06.
 Requested convergence on             energy=1.00D-06.
 No special actions if energy rises.
 Defaulting to unpruned grid for atomic number  78.
 Defaulting to unpruned grid for atomic number  78.
 Defaulting to unpruned grid for atomic number  78.
 Defaulting to unpruned grid for atomic number  78.
 Inv3:  Mode=1 IEnd=     8864883.
 Iteration    1 A*A^-1 deviation from unit magnitude is 6.99D-15 for    588.
 Iteration    1 A*A^-1 deviation from orthogonality  is 4.10D-15 for   1066    906.
 Iteration    1 A^-1*A deviation from unit magnitude is 6.88D-15 for    321.
 Iteration    1 A^-1*A deviation from orthogonality  is 6.09D-14 for   1053   1049.
 Error on total polarization charges =  0.00978
 SCF Done:  E(RB3LYP) =  -4228.46852632     A.U. after   17 cycles
            NFock= 17  Conv=0.87D-08     -V/T= 2.0219

 **********************************************************************

            Population analysis using the SCF density.

 **********************************************************************

 Orbital symmetries:
       Occupied  (A) (A) (A) (A) (A) (A) (A) (A) (A) (A) (A) (A)
                 (A) (A) (A) (A) (A) (A) (A) (A) (A) (A) (A) (A)
                 (A) (A) (A) (A) (A) (A) (A) (A) (A) (A) (A) (A)
                 (A) (A) (A) (A) (A) (A) (A) (A) (A) (A) (A) (A)
                 (A) (A) (A) (A) (A) (A) (A) (A) (A) (A) (A) (A)
                 (A) (A) (A) (A) (A) (A) (A) (A) (A) (A) (A) (A)
                 (A) (A) (A) (A) (A) (A) (A)
       Virtual   (A) (A) (A) (A) (A) (A) (A) (A) (A) (A) (A) (A)
                 (A) (A) (A) (A) (A) (A) (A) (A) (A) (A) (A) (A)
                 (A) (A) (A) (A) (A) (A) (A) (A) (A) (A) (A) (A)
                 (A) (A) (A) (A) (A) (A) (A) (A) (A) (A) (A) (A)
                 (A) (A) (A) (A) (A) (A) (A) (A) (A) (A) (A) (A)
                 (A) (A) (A) (A) (A) (A) (A) (A) (A) (A) (A) (A)
                 (A) (A) (A) (A) (A) (A) (A) (A) (A) (A) (A) (A)
                 (A) (A) (A) (A) (A) (A) (A) (A) (A) (A) (A) (A)
                 (A) (A) (A) (A) (A) (A) (A) (A) (A) (A) (A) (A)
                 (A) (A) (A) (A) (A) (A) (A) (A) (A) (A) (A) (A)
                 (A) (A) (A) (A) (A) (A) (A) (A) (A) (A) (A) (A)
                 (A) (A) (A) (A) (A)
 The electronic state is 1-A.
 Alpha  occ. eigenvalues -- -482.74927-101.45163-101.43893 -62.43058 -56.26255
 Alpha  occ. eigenvalues --  -56.25959 -56.25954 -19.15757 -19.15694 -19.14712
 Alpha  occ. eigenvalues --  -19.14674 -19.14605 -19.14446 -14.52977 -14.51392
 Alpha  occ. eigenvalues --  -14.51240  -9.40401  -9.39134  -8.64791  -7.17206
 Alpha  occ. eigenvalues --   -7.16383  -7.16369  -7.15872  -7.15146  -7.15146
 Alpha  occ. eigenvalues --   -6.47979  -6.46929  -6.46915  -4.01743  -2.59423
 Alpha  occ. eigenvalues --   -2.59136  -2.59125  -2.58299  -2.58299  -2.22920
 Alpha  occ. eigenvalues --   -2.22815  -2.22747  -1.20192  -1.18831  -1.18698
 Alpha  occ. eigenvalues --   -1.03140  -1.01696  -1.01528  -0.75866  -0.74413
 Alpha  occ. eigenvalues --   -0.72190  -0.63675  -0.62862  -0.60550  -0.53572
 Alpha  occ. eigenvalues --   -0.52366  -0.51884  -0.50625  -0.50088  -0.49890
 Alpha  occ. eigenvalues --   -0.49651  -0.48905  -0.48697  -0.40335  -0.37743
 Alpha  occ. eigenvalues --   -0.37079  -0.36350  -0.35638  -0.31140  -0.31033
 Alpha  occ. eigenvalues --   -0.30284  -0.30036  -0.29550  -0.28666  -0.28271
 Alpha  occ. eigenvalues --   -0.27390  -0.26901  -0.26612  -0.25632  -0.25566
 Alpha  occ. eigenvalues --   -0.25383  -0.24539  -0.24493  -0.23210
 Alpha virt. eigenvalues --   -0.10409  -0.07557  -0.04787  -0.04307  -0.03159
 Alpha virt. eigenvalues --    0.05309   0.06260   0.06791   0.11437   0.22985
 Alpha virt. eigenvalues --    0.24217   0.25880   0.28547   0.32143   0.33558
 Alpha virt. eigenvalues --    0.36793   0.37329   0.38736   0.39961   0.40850
 Alpha virt. eigenvalues --    0.42034   0.43932   0.48867   0.50028   0.57773
 Alpha virt. eigenvalues --    0.57946   0.60251   0.60690   0.61265   0.65253
 Alpha virt. eigenvalues --    0.65724   0.68056   0.68844   0.70780   0.70958
 Alpha virt. eigenvalues --    0.71979   0.75171   0.79212   0.80139   0.80633
 Alpha virt. eigenvalues --    0.80876   0.81781   0.82725   0.82955   0.84600
 Alpha virt. eigenvalues --    0.87435   0.88235   0.89252   0.90161   0.90672
 Alpha virt. eigenvalues --    0.91165   0.91982   0.92833   0.93489   0.94442
 Alpha virt. eigenvalues --    0.95569   0.97449   0.98079   0.98829   0.99526
 Alpha virt. eigenvalues --    1.01962   1.03039   1.04093   1.04995   1.05074
 Alpha virt. eigenvalues --    1.06018   1.09025   1.09506   1.10577   1.11792
 Alpha virt. eigenvalues --    1.13156   1.14268   1.17217   1.18037   1.22456
 Alpha virt. eigenvalues --    1.22656   1.27348   1.28617   1.35183   1.38674
 Alpha virt. eigenvalues --    1.39130   1.40086   1.42448   1.44170   1.46327
 Alpha virt. eigenvalues --    1.50399   1.81809   1.81934   1.86813   1.91068
 Alpha virt. eigenvalues --    1.94997   1.99398   2.03904   2.06803   2.10187
 Alpha virt. eigenvalues --    2.40372   2.40596   2.42101   2.42475   2.43887
 Alpha virt. eigenvalues --    2.46198   2.61771   2.62111   2.63151   2.63285
 Alpha virt. eigenvalues --    2.64077   2.64294   2.65193   2.66787   2.67749
 Alpha virt. eigenvalues --    2.71434   2.72077   2.72314   2.98875   2.99039
 Alpha virt. eigenvalues --    3.00264   3.06166   3.07185   3.07471   3.29517
 Alpha virt. eigenvalues --    3.29819   3.30042   3.33617   3.39319   3.40617
 Alpha virt. eigenvalues --    3.45773   3.48366   3.57919   3.58275   3.70078
 Alpha virt. eigenvalues --    3.71155   3.71899   3.73556   3.75565   3.76589
 Alpha virt. eigenvalues --    3.79101   7.78410
          Condensed to atoms (all electrons):
               1          2          3          4          5          6
     1  Pt  17.121171   0.117938   0.132315  -0.026651  -0.026380  -0.026955
     2  N    0.117938   6.231632  -0.002119   0.284285   0.271342  -0.003152
     3  N    0.132315  -0.002119   6.190579  -0.004280  -0.000065   0.289916
     4  O   -0.026651   0.284285  -0.004280   8.103176  -0.101537   0.003576
     5  O   -0.026380   0.271342  -0.000065  -0.101537   8.120193   0.000005
     6  O   -0.026955  -0.003152   0.289916   0.003576   0.000005   8.117338
     7  O   -0.020363  -0.000250   0.273594   0.000031   0.000002  -0.103782
     8  Br   0.226698  -0.010343  -0.010921   0.000887  -0.000022   0.000862
     9  N    0.122650  -0.008927  -0.002209   0.000089  -0.001472   0.000043
    10  O   -0.024957  -0.000980   0.000042  -0.000040   0.000334  -0.000001
    11  O   -0.013652  -0.000012   0.000048   0.000000  -0.000061   0.000000
    12  Cl   0.250171  -0.015515  -0.009903  -0.000133   0.000073   0.000001
    13  Cl   0.260701  -0.001348  -0.005841   0.000022   0.000026  -0.000112
               7          8          9         10         11         12
     1  Pt  -0.020363   0.226698   0.122650  -0.024957  -0.013652   0.250171
     2  N   -0.000250  -0.010343  -0.008927  -0.000980  -0.000012  -0.015515
     3  N    0.273594  -0.010921  -0.002209   0.000042   0.000048  -0.009903
     4  O    0.000031   0.000887   0.000089  -0.000040   0.000000  -0.000133
     5  O    0.000002  -0.000022  -0.001472   0.000334  -0.000061   0.000073
     6  O   -0.103782   0.000862   0.000043  -0.000001   0.000000   0.000001
     7  O    8.135600  -0.000012   0.000052   0.000000  -0.000001  -0.000301
     8  Br  -0.000012  34.997290  -0.012563   0.000795  -0.000221  -0.001569
     9  N    0.000052  -0.012563   6.206516   0.277750   0.274856  -0.007900
    10  O    0.000000   0.000795   0.277750   8.134348  -0.100585  -0.000062
    11  O   -0.000001  -0.000221   0.274856  -0.100585   8.122961  -0.000275
    12  Cl  -0.000301  -0.001569  -0.007900  -0.000062  -0.000275  17.034467
    13  Cl  -0.000571  -0.017203  -0.006032   0.000003  -0.000440  -0.009068
              13
     1  Pt   0.260701
     2  N   -0.001348
     3  N   -0.005841
     4  O    0.000022
     5  O    0.000026
     6  O   -0.000112
     7  O   -0.000571
     8  Br  -0.017203
     9  N   -0.006032
    10  O    0.000003
    11  O   -0.000440
    12  Cl  -0.009068
    13  Cl  17.064088
 Mulliken charges:
               1
     1  Pt  -0.092685
     2  N    0.137449
     3  N    0.148846
     4  O   -0.259424
     5  O   -0.262438
     6  O   -0.277740
     7  O   -0.283998
     8  Br  -0.173679
     9  N    0.157146
    10  O   -0.286647
    11  O   -0.282619
    12  Cl  -0.239985
    13  Cl  -0.284226
 Sum of Mulliken charges =  -2.00000
 Mulliken charges with hydrogens summed into heavy atoms:
               1
     1  Pt  -0.092685
     2  N    0.137449
     3  N    0.148846
     4  O   -0.259424
     5  O   -0.262438
     6  O   -0.277740
     7  O   -0.283998
     8  Br  -0.173679
     9  N    0.157146
    10  O   -0.286647
    11  O   -0.282619
    12  Cl  -0.239985
    13  Cl  -0.284226
 Electronic spatial extent (au):  <R**2>=           3563.4134
 Charge=             -2.0000 electrons
 Dipole moment (field-independent basis, Debye):
    X=              2.1615    Y=             -0.4745    Z=              0.5541  Tot=              2.2813
 Quadrupole moment (field-independent basis, Debye-Ang):
   XX=           -145.7621   YY=           -155.5833   ZZ=           -147.5603
   XY=             -3.6844   XZ=             -5.0246   YZ=              0.9521
 Traceless Quadrupole moment (field-independent basis, Debye-Ang):
   XX=              3.8732   YY=             -5.9481   ZZ=              2.0749
   XY=             -3.6844   XZ=             -5.0246   YZ=              0.9521
 Octapole moment (field-independent basis, Debye-Ang**2):
  XXX=             43.9186  YYY=            -11.4849  ZZZ=            -13.2936  XYY=             18.7768
  XXY=             -4.9936  XXZ=             -0.9458  XZZ=             14.9103  YZZ=              2.2944
  YYZ=             -1.2784  XYZ=             -5.5400
 Hexadecapole moment (field-independent basis, Debye-Ang**3):
 XXXX=          -1489.5359 YYYY=          -1742.9786 ZZZZ=          -1421.2363 XXXY=            -22.5439
 XXXZ=            -16.1877 YYYX=            -37.8598 YYYZ=              3.5104 ZZZX=            -23.1466
 ZZZY=             19.4733 XXYY=           -521.9026 XXZZ=           -472.0564 YYZZ=           -476.9683
 XXYZ=            -11.4959 YYXZ=            -32.4969 ZZXY=            -28.6589
 N-N= 1.809940288837D+03 E-N=-1.370237357235D+04  KE= 4.137824333852D+03
   1 Symmetry operations used in ECPInt.
 ECPInt:  NShTT=    4095 NPrTT=   18359 LenC2=    3819 LenP2D=   11999.
 LDataN:  DoStor=T MaxTD1= 7 Len=  274
 D1PCM: PCM CHGder 1st derivatives, ID1Alg=3 FixD1E=F DoIter=F DoCFld=F I1PDM=0.
 Calling FoFJK, ICntrl=      2127 FMM=F ISym2X=0 I1Cent= 0 IOpClX= 0 NMat=1 NMatS=1 NMatT=0.
 Defaulting to unpruned grid for atomic number  78.
 Defaulting to unpruned grid for atomic number  78.
 Defaulting to unpruned grid for atomic number  78.
 Defaulting to unpruned grid for atomic number  78.
 ***** Axes restored to original set *****
 -------------------------------------------------------------------
 Center     Atomic                   Forces (Hartrees/Bohr)
 Number     Number              X              Y              Z
 -------------------------------------------------------------------
      1       78           0.001919654   -0.000924488    0.005652311
      2        7           0.000435304   -0.000904980    0.006491778
      3        7           0.000425874    0.006975132    0.000341366
      4        8          -0.000526357    0.000223514   -0.002765005
      5        8           0.000620278    0.000274725   -0.002778484
      6        8          -0.000504790   -0.002756232    0.000298491
      7        8           0.000391901   -0.002985535    0.000195222
      8       35           0.007026072   -0.001523097    0.000093579
      9        7          -0.001702670   -0.006611919   -0.001463104
     10        8           0.000093133    0.003006756    0.000775712
     11        8           0.001220718    0.002327677    0.001266327
     12       17          -0.009179297    0.001496648    0.001682311
     13       17          -0.000219819    0.001401800   -0.009790505
 -------------------------------------------------------------------
 Cartesian Forces:  Max     0.009790505 RMS     0.003462621

 GradGradGradGradGradGradGradGradGradGradGradGradGradGradGradGradGradGrad
 Berny optimization.
 Search for a local minimum.
 Step number   1 out of a maximum of   49
 All quantities printed in internal units (Hartrees-Bohrs-Radians)
 Second derivative matrix not updated -- first step.
 ITU=  0
     Eigenvalues ---    0.00233   0.00262   0.00281   0.01125   0.01437
     Eigenvalues ---    0.01822   0.02296   0.03393   0.03551   0.03738
     Eigenvalues ---    0.03883   0.04713   0.05743   0.07665   0.08717
     Eigenvalues ---    0.09468   0.11449   0.13137   0.13352   0.15883
     Eigenvalues ---    0.25678   0.27901   0.31415   0.31503   0.60121
     Eigenvalues ---    0.71007   1.53284   1.54953   1.55677   2.21610
     Eigenvalues ---    2.49194   2.55780   4.95543
 RFO step:  Lambda=-1.93946675D-03 EMin= 2.33111057D-03
 Linear search not attempted -- first point.
 TrRot=  0.000449  0.000398 -0.001784 -0.252930  0.000257  0.252903
 Variable       Old X    -DE/DX   Delta X   Delta X   Delta X     New X
                                 (Linear)    (Quad)   (Total)
    X1       -0.40335   0.00192   0.00000  -0.00540  -0.00497  -0.40832
    Y1        0.10817  -0.00092   0.00000   0.00259   0.00300   0.11117
    Z1       -0.09108   0.00565   0.00000  -0.00443  -0.00610  -0.09718
    X2       -0.24021   0.00044   0.00000   0.01017   0.01156  -0.22865
    Y2       -0.44759  -0.00090   0.00000  -0.00483  -0.00468  -0.45226
    Z2        3.83371   0.00649   0.00000   0.00100  -0.00076   3.83295
    X3        0.36267   0.00043   0.00000   0.00635   0.00698   0.36965
    Y3        4.05891   0.00698   0.00000   0.00927   0.00964   4.06855
    Z3        0.29409   0.00034   0.00000   0.00554   0.00392   0.29801
    X4        1.28219  -0.00053   0.00000  -0.03221  -0.03048   1.25172
    Y4        0.75232   0.00022   0.00000   0.05386   0.05390   0.80622
    Z4        5.07218  -0.00277   0.00000  -0.00706  -0.00910   5.06308
    X5       -1.71262   0.00062   0.00000   0.07276   0.07433  -1.63828
    Y5       -1.95620   0.00027   0.00000  -0.07789  -0.07775  -2.03395
    Z5        4.75995  -0.00278   0.00000  -0.02288  -0.02439   4.73556
    X6        2.29910  -0.00050   0.00000  -0.01834  -0.01741   2.28169
    Y6        4.74444  -0.00276   0.00000  -0.01834  -0.01810   4.72634
    Z6        1.33999   0.00030   0.00000   0.06678   0.06473   1.40472
    X7       -1.15670   0.00039   0.00000   0.03016   0.03060  -1.12610
    Y7        5.55336  -0.00299   0.00000   0.00511   0.00558   5.55894
    Z7       -0.59523   0.00020   0.00000  -0.03589  -0.03704  -0.63227
    X8        4.23236   0.00703   0.00000   0.03949   0.03977   4.27213
    Y8       -0.86462  -0.00152   0.00000  -0.00868  -0.00836  -0.87298
    Z8       -0.55745   0.00009   0.00000  -0.00086  -0.00376  -0.56121
    X9       -1.19597  -0.00170   0.00000  -0.00851  -0.00831  -1.20428
    Y9       -3.80609  -0.00661   0.00000  -0.00719  -0.00672  -3.81281
    Z9       -0.58403  -0.00146   0.00000   0.00582   0.00409  -0.57993
   X10       -0.04666   0.00009   0.00000  -0.04676  -0.04627  -0.09293
   Y10       -5.34407   0.00301   0.00000   0.01878   0.01913  -5.32494
   Z10        0.69936   0.00078   0.00000   0.06825   0.06614   0.76551
   X11       -2.78183   0.00122   0.00000   0.01460   0.01439  -2.76744
   Y11       -4.42801   0.00233   0.00000  -0.00543  -0.00482  -4.43283
   Z11       -2.13927   0.00127   0.00000  -0.01485  -0.01623  -2.15550
   X12       -4.80689  -0.00918   0.00000  -0.05696  -0.05638  -4.86327
   Y12        0.90840   0.00150   0.00000   0.01484   0.01534   0.92373
   Z12        0.39119   0.00168   0.00000   0.02614   0.02562   0.41681
   X13       -0.61811  -0.00022   0.00000  -0.01314  -0.01382  -0.63193
   Y13        0.77472   0.00140   0.00000   0.01312   0.01383   0.78855
   Z13       -4.58456  -0.00979   0.00000  -0.06555  -0.06713  -4.65169
         Item               Value     Threshold  Converged?
 Maximum Force            0.009791     0.002500     NO 
 RMS     Force            0.003463     0.001667     NO 
 Maximum Displacement     0.077749     0.010000     NO 
 RMS     Displacement     0.032722     0.006667     NO 
 Predicted change in Energy=-1.009726D-03
 GradGradGradGradGradGradGradGradGradGradGradGradGradGradGradGradGradGrad

                          Input orientation:                          
 ---------------------------------------------------------------------
 Center     Atomic      Atomic             Coordinates (Angstroms)
 Number     Number       Type             X           Y           Z
 ---------------------------------------------------------------------
      1         78           0       -0.216073    0.058830   -0.051427
      2          7           0       -0.120999   -0.239326    2.028312
      3          7           0        0.195611    2.152986    0.157702
      4          8           0        0.662380    0.426635    2.679264
      5          8           0       -0.866943   -1.076322    2.505951
      6          8           0        1.207419    2.501074    0.743345
      7          8           0       -0.595905    2.941666   -0.334582
      8         35           0        2.260714   -0.461959   -0.296980
      9          7           0       -0.637276   -2.017653   -0.306888
     10          8           0       -0.049174   -2.817836    0.405089
     11          8           0       -1.464464   -2.345753   -1.140640
     12         17           0       -2.573532    0.488819    0.220569
     13         17           0       -0.334404    0.417283   -2.461569
 ---------------------------------------------------------------------
                    Distance matrix (angstroms):
                    1          2          3          4          5
     1  Pt   0.000000
     2  N    2.103153   0.000000
     3  N    2.144461   3.053290   0.000000
     4  O    2.891996   1.216933   3.091349   0.000000
     5  O    2.872696   1.218660   4.131794   2.151219   0.000000
     6  O    2.936418   3.305394   1.219795   2.889317   4.495277
     7  O    2.921505   3.990929   1.221006   4.122127   4.928114
     8  Br   2.542832   3.336031   3.362934   3.493179   4.244538
     9  N    2.134116   2.980293   4.278291   4.071947   2.975048
    10  O    2.917441   3.047741   4.982990   4.025515   2.848725
    11  O    2.920082   4.035367   4.967916   5.176994   3.907187
    12  Cl   2.411739   3.132579   3.231340   4.064502   3.253473
    13  Cl   2.439523   4.542654   3.186560   5.236586   5.214471
                    6          7          8          9         10
     6  O    0.000000
     7  O    2.146632   0.000000
     8  Br   3.312290   4.443686   0.000000
     9  N    4.992472   4.959568   3.289168   0.000000
    10  O    5.475787   5.832485   3.373224   1.221912   0.000000
    11  O    5.846374   5.418571   4.258801   1.219439   2.148298
    12  Cl   4.314865   3.199321   4.953966   3.210872   4.164181
    13  Cl   4.121999   3.311339   3.491869   3.265470   4.331867
                   11         12         13
    11  O    0.000000
    12  Cl   3.334325   0.000000
    13  Cl   3.264392   3.494664   0.000000
 Stoichiometry    BrCl2N3O6Pt(2-)
 Framework group  C1[X(BrCl2N3O6Pt)]
 Deg. of freedom    33
 Full point group                 C1      NOp   1
 Largest Abelian subgroup         C1      NOp   1
 Largest concise Abelian subgroup C1      NOp   1
                         Standard orientation:                         
 ---------------------------------------------------------------------
 Center     Atomic      Atomic             Coordinates (Angstroms)
 Number     Number       Type             X           Y           Z
 ---------------------------------------------------------------------
      1         78           0       -0.217924    0.053551   -0.047196
      2          7           0       -0.104970   -0.277928    2.026596
      3          7           0        0.141676    2.153564    0.196406
      4          8           0        0.664542    0.396377    2.685451
      5          8           0       -0.827106   -1.141705    2.493009
      6          8           0        1.147260    2.517071    0.783402
      7          8           0       -0.671987    2.930271   -0.278500
      8         35           0        2.269993   -0.399881   -0.313016
      9          7           0       -0.587719   -2.028239   -0.336773
     10          8           0        0.023984   -2.825397    0.358515
     11          8           0       -1.410485   -2.362800   -1.172330
     12         17           0       -2.584124    0.418800    0.242942
     13         17           0       -0.357300    0.450408   -2.450185
 ---------------------------------------------------------------------
 Rotational constants (GHZ):      0.4365759      0.3987068      0.3698837
 Basis read from rwf:  (5D, 7F)
 Pseudo-potential data read from rwf file.
 There are   232 symmetry adapted cartesian basis functions of A   symmetry.
 There are   216 symmetry adapted basis functions of A   symmetry.
   216 basis functions,   422 primitive gaussians,   232 cartesian basis functions
    79 alpha electrons       79 beta electrons
       nuclear repulsion energy      1801.0947302879 Hartrees.
 NAtoms=   13 NActive=   13 NUniq=   13 SFac= 1.00D+00 NAtFMM=   60 NAOKFM=F Big=F
 Integral buffers will be    131072 words long.
 Raffenetti 2 integral format.
 Two-electron integral symmetry is turned on.
 ------------------------------------------------------------------------------
 Polarizable Continuum Model (PCM)
 =================================
 Model                : PCM (using non-symmetric T matrix).
 Atomic radii         : UFF (Universal Force Field).
 Polarization charges : Total charges.
 Charge compensation  : None.
 Solution method      : On-the-fly selection.
 Cavity type          : Scaled VdW (van der Waals Surface) (Alpha=1.100).
 Cavity algorithm     : GePol (No added spheres)
                        Default sphere list used, NSphG=   13.
                        Lebedev-Laikov grids with approx.  5.0 points / Ang**2.
                        Smoothing algorithm: Karplus/York (Gamma=1.0000).
                        Polarization charges: spherical gaussians, with
                                              point-specific exponents (IZeta= 3).
                        Self-potential: point-specific (ISelfS= 7).
                        Self-field    : sphere-specific E.n sum rule (ISelfD= 2).
 1st derivatives      : Analytical E(r).r(x)/FMM algorithm (CHGder, D1EAlg=3).
                        Cavity 1st derivative terms included.
 Solvent              : Water, Eps=  78.355300 Eps(inf)=   1.777849
 ------------------------------------------------------------------------------
 Spheres list:
 ISph  on   Nord     Re0    Alpha      Xe            Ye            Ze
    1  Pt      1    1.3770  1.100     -0.217924      0.053551     -0.047196
    2   N      2    1.8300  1.100     -0.104970     -0.277928      2.026596
    3   N      3    1.8300  1.100      0.141676      2.153564      0.196406
    4   O      4    1.7500  1.100      0.664542      0.396377      2.685451
    5   O      5    1.7500  1.100     -0.827106     -1.141705      2.493009
    6   O      6    1.7500  1.100      1.147260      2.517071      0.783402
    7   O      7    1.7500  1.100     -0.671987      2.930271     -0.278500
    8  Br      8    2.0945  1.100      2.269993     -0.399881     -0.313016
    9   N      9    1.8300  1.100     -0.587719     -2.028239     -0.336773
   10   O     10    1.7500  1.100      0.023984     -2.825397      0.358515
   11   O     11    1.7500  1.100     -1.410485     -2.362800     -1.172330
   12  Cl     12    1.9735  1.100     -2.584124      0.418800      0.242942
   13  Cl     13    1.9735  1.100     -0.357300      0.450408     -2.450185
 ------------------------------------------------------------------------------
 One-electron integrals computed using PRISM.
   1 Symmetry operations used in ECPInt.
 ECPInt:  NShTT=    4095 NPrTT=   18359 LenC2=    3815 LenP2D=   11971.
 LDataN:  DoStor=T MaxTD1= 6 Len=  172
 NBasis=   216 RedAO= T EigKep=  5.25D-03  NBF=   216
 NBsUse=   216 1.00D-06 EigRej= -1.00D+00 NBFU=   216
 Defaulting to unpruned grid for atomic number  78.
 Initial guess from the checkpoint file:  "/scr/nqtcm/Gau-32555.chk"
 B after Tr=     0.000000    0.000000    0.000000
         Rot=    0.999879   -0.008698   -0.002558   -0.012630 Ang=  -1.78 deg.
 ExpMin= 2.90D-02 ExpMax= 1.13D+05 ExpMxC= 1.70D+04 IAcc=3 IRadAn=         5 AccDes= 0.00D+00
 Harris functional with IExCor=  402 and IRadAn=       5 diagonalized for initial guess.
 HarFok:  IExCor=  402 AccDes= 0.00D+00 IRadAn=         5 IDoV= 1 UseB2=F ITyADJ=14
 ICtDFT=  3500011 ScaDFX=  1.000000  1.000000  1.000000  1.000000
 Defaulting to unpruned grid for atomic number  78.
 Defaulting to unpruned grid for atomic number  78.
 Defaulting to unpruned grid for atomic number  78.
 Defaulting to unpruned grid for atomic number  78.
 FoFCou: FMM=F IPFlag=           0 FMFlag=      100000 FMFlg1=           0
         NFxFlg=           0 DoJE=T BraDBF=F KetDBF=T FulRan=T
         wScrn=  0.000000 ICntrl=     500 IOpCl=  0 I1Cent=   200000004 NGrid=           0
         NMat0=    1 NMatS0=      1 NMatT0=    0 NMatD0=    1 NMtDS0=    0 NMtDT0=    0
 Petite list used in FoFCou.
 Keep R1 ints in memory in canonical form, NReq=281239348.
 Requested convergence on RMS density matrix=1.00D-08 within 128 cycles.
 Requested convergence on MAX density matrix=1.00D-06.
 Requested convergence on             energy=1.00D-06.
 No special actions if energy rises.
 Defaulting to unpruned grid for atomic number  78.
 Defaulting to unpruned grid for atomic number  78.
 Defaulting to unpruned grid for atomic number  78.
 Defaulting to unpruned grid for atomic number  78.
 Inv3:  Mode=1 IEnd=     8772300.
 Iteration    1 A*A^-1 deviation from unit magnitude is 6.44D-15 for   1217.
 Iteration    1 A*A^-1 deviation from orthogonality  is 3.75D-15 for   1476    812.
 Iteration    1 A^-1*A deviation from unit magnitude is 7.66D-15 for    810.
 Iteration    1 A^-1*A deviation from orthogonality  is 2.00D-14 for   1038   1035.
 Error on total polarization charges =  0.00981
 SCF Done:  E(RB3LYP) =  -4228.46964370     A.U. after   13 cycles
            NFock= 13  Conv=0.38D-08     -V/T= 2.0219
   1 Symmetry operations used in ECPInt.
 ECPInt:  NShTT=    4095 NPrTT=   18359 LenC2=    3815 LenP2D=   11971.
 LDataN:  DoStor=T MaxTD1= 7 Len=  274
 D1PCM: PCM CHGder 1st derivatives, ID1Alg=3 FixD1E=F DoIter=F DoCFld=F I1PDM=0.
 Calling FoFJK, ICntrl=      2127 FMM=F ISym2X=0 I1Cent= 0 IOpClX= 0 NMat=1 NMatS=1 NMatT=0.
 Defaulting to unpruned grid for atomic number  78.
 Defaulting to unpruned grid for atomic number  78.
 Defaulting to unpruned grid for atomic number  78.
 Defaulting to unpruned grid for atomic number  78.
 ***** Axes restored to original set *****
 -------------------------------------------------------------------
 Center     Atomic                   Forces (Hartrees/Bohr)
 Number     Number              X              Y              Z
 -------------------------------------------------------------------
      1       78           0.000463289    0.000216551    0.001212981
      2        7           0.000429721   -0.001580339    0.003255540
      3        7           0.000069299    0.001127747    0.000963571
      4        8          -0.002844088   -0.001965267   -0.001410137
      5        8           0.002286803    0.003654909   -0.001193542
      6        8          -0.001951894    0.000152917   -0.001444875
      7        8           0.001871702   -0.000733254    0.000859694
      8       35           0.001841496   -0.000594985    0.000291460
      9        7          -0.000705461   -0.001479811    0.001309303
     10        8          -0.000891187    0.001026542   -0.002442871
     11        8           0.001608798   -0.000340348    0.001122749
     12       17          -0.002262808    0.000197547    0.000843040
     13       17           0.000084328    0.000317790   -0.003366914
 -------------------------------------------------------------------
 Cartesian Forces:  Max     0.003654909 RMS     0.001594846

 GradGradGradGradGradGradGradGradGradGradGradGradGradGradGradGradGradGrad
 Berny optimization.
 Search for a local minimum.
 Step number   2 out of a maximum of   49
 All quantities printed in internal units (Hartrees-Bohrs-Radians)
 Update second derivatives using D2CorN and points    1    2
 DE= -1.12D-03 DEPred=-1.01D-03 R= 1.11D+00
 TightC=F SS=  1.41D+00  RLast= 2.04D-01 DXNew= 5.0454D-01 6.1304D-01
 Trust test= 1.11D+00 RLast= 2.04D-01 DXMaxT set to 5.05D-01
 ITU=  1  0
     Eigenvalues ---    0.00247   0.00270   0.00514   0.01150   0.01510
     Eigenvalues ---    0.01889   0.02293   0.03378   0.03553   0.03728
     Eigenvalues ---    0.03901   0.04712   0.05736   0.07586   0.08716
     Eigenvalues ---    0.09469   0.11434   0.13075   0.13157   0.15342
     Eigenvalues ---    0.25658   0.27901   0.31450   0.31663   0.60116
     Eigenvalues ---    0.70946   1.53224   1.54950   1.55643   2.21609
     Eigenvalues ---    2.49204   2.55784   4.95542
 RFO step:  Lambda=-3.60083537D-04 EMin= 2.46516934D-03
 Quartic linear search produced a step of  0.15265.
 TrRot= -0.000129 -0.000895  0.000784  0.431722  0.000153 -0.431865
 Variable       Old X    -DE/DX   Delta X   Delta X   Delta X     New X
                                 (Linear)    (Quad)   (Total)
    X1       -0.40832   0.00046  -0.00076  -0.00152  -0.00240  -0.41072
    Y1        0.11117   0.00022   0.00046  -0.00228  -0.00267   0.10850
    Z1       -0.09718   0.00121  -0.00093   0.00189   0.00180  -0.09539
    X2       -0.22865   0.00043   0.00176   0.00009   0.00220  -0.22646
    Y2       -0.45226  -0.00158  -0.00071   0.00004  -0.00129  -0.45355
    Z2        3.83295   0.00326  -0.00012   0.00463   0.00536   3.83831
    X3        0.36965   0.00007   0.00107  -0.00110   0.00046   0.37011
    Y3        4.06855   0.00113   0.00147   0.00025   0.00079   4.06935
    Z3        0.29801   0.00096   0.00060   0.00537   0.00644   0.30446
    X4        1.25172  -0.00284  -0.00465  -0.00452  -0.00849   1.24323
    Y4        0.80622  -0.00197   0.00823  -0.00346   0.00402   0.81024
    Z4        5.06308  -0.00141  -0.00139   0.00697   0.00614   5.06921
    X5       -1.63828   0.00229   0.01135  -0.03301  -0.02142  -1.65970
    Y5       -2.03395   0.00365  -0.01187   0.04619   0.03397  -1.99999
    Z5        4.73556  -0.00119  -0.00372   0.01619   0.01361   4.74917
    X6        2.28169  -0.00195  -0.00266  -0.01201  -0.01392   2.26777
    Y6        4.72634   0.00015  -0.00276   0.00678   0.00289   4.72923
    Z6        1.40472  -0.00144   0.00988   0.01644   0.02649   1.43121
    X7       -1.12610   0.00187   0.00467   0.02415   0.02939  -1.09671
    Y7        5.55894  -0.00073   0.00085   0.00527   0.00534   5.56428
    Z7       -0.63227   0.00086  -0.00565  -0.02444  -0.02951  -0.66178
    X8        4.27213   0.00184   0.00607   0.00442   0.01016   4.28229
    Y8       -0.87298  -0.00059  -0.00128  -0.00776  -0.01058  -0.88356
    Z8       -0.56121   0.00029  -0.00057   0.00545   0.00512  -0.55609
    X9       -1.20428  -0.00071  -0.00127  -0.00282  -0.00484  -1.20912
    Y9       -3.81281  -0.00148  -0.00103  -0.00571  -0.00750  -3.82031
    Z9       -0.57993   0.00131   0.00062  -0.00122   0.00060  -0.57933
   X10       -0.09293  -0.00089  -0.00706   0.05845   0.05059  -0.04233
   Y10       -5.32494   0.00103   0.00292  -0.01624  -0.01417  -5.33910
   Z10        0.76551  -0.00244   0.01010  -0.07317  -0.06194   0.70357
   X11       -2.76744   0.00161   0.00220  -0.02086  -0.01972  -2.78715
   Y11       -4.43283  -0.00034  -0.00074  -0.01001  -0.01138  -4.44421
   Z11       -2.15550   0.00112  -0.00248   0.02115   0.02013  -2.13537
   X12       -4.86327  -0.00226  -0.00861  -0.00655  -0.01509  -4.87836
   Y12        0.92373   0.00020   0.00234  -0.00104   0.00114   0.92487
   Z12        0.41681   0.00084   0.00391   0.02223   0.02754   0.44436
   X13       -0.63193   0.00008  -0.00211  -0.00414  -0.00691  -0.63885
   Y13        0.78855   0.00032   0.00211  -0.00157  -0.00056   0.78799
   Z13       -4.65169  -0.00337  -0.01025  -0.01235  -0.02178  -4.67347
         Item               Value     Threshold  Converged?
 Maximum Force            0.003655     0.002500     NO 
 RMS     Force            0.001595     0.001667     YES
 Maximum Displacement     0.061938     0.010000     NO 
 RMS     Displacement     0.018971     0.006667     NO 
 Predicted change in Energy=-1.709121D-04
 GradGradGradGradGradGradGradGradGradGradGradGradGradGradGradGradGradGrad

                          Input orientation:                          
 ---------------------------------------------------------------------
 Center     Atomic      Atomic             Coordinates (Angstroms)
 Number     Number       Type             X           Y           Z
 ---------------------------------------------------------------------
      1         78           0       -0.217344    0.057418   -0.050477
      2          7           0       -0.119837   -0.240010    2.031148
      3          7           0        0.195854    2.153406    0.161111
      4          8           0        0.657889    0.428761    2.682512
      5          8           0       -0.878276   -1.058347    2.513152
      6          8           0        1.200051    2.502603    0.757363
      7          8           0       -0.580352    2.944492   -0.350201
      8         35           0        2.266089   -0.467557   -0.294273
      9          7           0       -0.639840   -2.021622   -0.306569
     10          8           0       -0.022401   -2.825331    0.372312
     11          8           0       -1.474898   -2.351774   -1.129988
     12         17           0       -2.581518    0.489421    0.235144
     13         17           0       -0.338063    0.416985   -2.473093
 ---------------------------------------------------------------------
                    Distance matrix (angstroms):
                    1          2          3          4          5
     1  Pt   0.000000
     2  N    2.105025   0.000000
     3  N    2.146781   3.053709   0.000000
     4  O    2.893640   1.215067   3.089553   0.000000
     5  O    2.872970   1.215415   4.123253   2.144756   0.000000
     6  O    2.939480   3.299478   1.218961   2.881138   4.481362
     7  O    2.925201   4.002993   1.220555   4.130314   4.930545
     8  Br   2.549995   3.339461   3.370860   3.500134   4.256490
     9  N    2.136935   2.984873   4.283453   4.077141   2.989244
    10  O    2.920103   3.073291   4.987992   4.048325   2.904815
    11  O    2.924209   4.035904   4.975440   5.178351   3.911698
    12  Cl   2.420232   3.133301   3.238538   4.060425   3.238200
    13  Cl   2.452129   4.557133   3.199884   5.250936   5.227914
                    6          7          8          9         10
     6  O    0.000000
     7  O    2.142849   0.000000
     8  Br   3.326293   4.443809   0.000000
     9  N    4.998575   4.966661   3.295405   0.000000
    10  O    5.479921   5.841592   3.352704   1.219861   0.000000
    11  O    5.855120   5.427588   4.271263   1.218336   2.142641
    12  Cl   4.315771   3.220973   4.969445   3.220078   4.189926
    13  Cl   4.141430   3.309632   3.508744   3.275927   4.325343
                   11         12         13
    11  O    0.000000
    12  Cl   3.340746   0.000000
    13  Cl   3.280603   3.517512   0.000000
 Stoichiometry    BrCl2N3O6Pt(2-)
 Framework group  C1[X(BrCl2N3O6Pt)]
 Deg. of freedom    33
 Full point group                 C1      NOp   1
 Largest Abelian subgroup         C1      NOp   1
 Largest concise Abelian subgroup C1      NOp   1
                         Standard orientation:                         
 ---------------------------------------------------------------------
 Center     Atomic      Atomic             Coordinates (Angstroms)
 Number     Number       Type             X           Y           Z
 ---------------------------------------------------------------------
      1         78           0       -0.219870    0.047114   -0.049251
      2          7           0       -0.109881   -0.243268    2.032747
      3          7           0        0.089373    2.161101    0.160731
      4          8           0        0.633317    0.463590    2.684204
      5          8           0       -0.827564   -1.097536    2.514817
      6          8           0        1.074562    2.559879    0.757593
      7          8           0       -0.724355    2.912529   -0.352063
      8         35           0        2.286646   -0.355113   -0.290215
      9          7           0       -0.539191   -2.050445   -0.303761
     10          8           0        0.116419   -2.822150    0.376464
     11          8           0       -1.356162   -2.422076   -1.127649
     12         17           0       -2.602735    0.362392    0.233739
     13         17           0       -0.355769    0.398107   -2.472321
 ---------------------------------------------------------------------
 Rotational constants (GHZ):      0.4350679      0.3965403      0.3684578
 Basis read from rwf:  (5D, 7F)
 Pseudo-potential data read from rwf file.
 There are   232 symmetry adapted cartesian basis functions of A   symmetry.
 There are   216 symmetry adapted basis functions of A   symmetry.
   216 basis functions,   422 primitive gaussians,   232 cartesian basis functions
    79 alpha electrons       79 beta electrons
       nuclear repulsion energy      1797.7296430236 Hartrees.
 NAtoms=   13 NActive=   13 NUniq=   13 SFac= 1.00D+00 NAtFMM=   60 NAOKFM=F Big=F
 Integral buffers will be    131072 words long.
 Raffenetti 2 integral format.
 Two-electron integral symmetry is turned on.
 ------------------------------------------------------------------------------
 Polarizable Continuum Model (PCM)
 =================================
 Model                : PCM (using non-symmetric T matrix).
 Atomic radii         : UFF (Universal Force Field).
 Polarization charges : Total charges.
 Charge compensation  : None.
 Solution method      : On-the-fly selection.
 Cavity type          : Scaled VdW (van der Waals Surface) (Alpha=1.100).
 Cavity algorithm     : GePol (No added spheres)
                        Default sphere list used, NSphG=   13.
                        Lebedev-Laikov grids with approx.  5.0 points / Ang**2.
                        Smoothing algorithm: Karplus/York (Gamma=1.0000).
                        Polarization charges: spherical gaussians, with
                                              point-specific exponents (IZeta= 3).
                        Self-potential: point-specific (ISelfS= 7).
                        Self-field    : sphere-specific E.n sum rule (ISelfD= 2).
 1st derivatives      : Analytical E(r).r(x)/FMM algorithm (CHGder, D1EAlg=3).
                        Cavity 1st derivative terms included.
 Solvent              : Water, Eps=  78.355300 Eps(inf)=   1.777849
 ------------------------------------------------------------------------------
 Spheres list:
 ISph  on   Nord     Re0    Alpha      Xe            Ye            Ze
    1  Pt      1    1.3770  1.100     -0.219870      0.047114     -0.049251
    2   N      2    1.8300  1.100     -0.109881     -0.243268      2.032747
    3   N      3    1.8300  1.100      0.089373      2.161101      0.160731
    4   O      4    1.7500  1.100      0.633317      0.463590      2.684204
    5   O      5    1.7500  1.100     -0.827564     -1.097536      2.514817
    6   O      6    1.7500  1.100      1.074562      2.559879      0.757593
    7   O      7    1.7500  1.100     -0.724355      2.912529     -0.352063
    8  Br      8    2.0945  1.100      2.286646     -0.355113     -0.290215
    9   N      9    1.8300  1.100     -0.539191     -2.050445     -0.303761
   10   O     10    1.7500  1.100      0.116419     -2.822150      0.376464
   11   O     11    1.7500  1.100     -1.356162     -2.422076     -1.127649
   12  Cl     12    1.9735  1.100     -2.602735      0.362392      0.233739
   13  Cl     13    1.9735  1.100     -0.355769      0.398107     -2.472321
 ------------------------------------------------------------------------------
 One-electron integrals computed using PRISM.
   1 Symmetry operations used in ECPInt.
 ECPInt:  NShTT=    4095 NPrTT=   18359 LenC2=    3813 LenP2D=   11966.
 LDataN:  DoStor=T MaxTD1= 6 Len=  172
 NBasis=   216 RedAO= T EigKep=  5.26D-03  NBF=   216
 NBsUse=   216 1.00D-06 EigRej= -1.00D+00 NBFU=   216
 Defaulting to unpruned grid for atomic number  78.
 Initial guess from the checkpoint file:  "/scr/nqtcm/Gau-32555.chk"
 B after Tr=     0.000000    0.000000    0.000000
         Rot=    0.999884    0.009122    0.002938   -0.011802 Ang=   1.74 deg.
 ExpMin= 2.90D-02 ExpMax= 1.13D+05 ExpMxC= 1.70D+04 IAcc=3 IRadAn=         5 AccDes= 0.00D+00
 Harris functional with IExCor=  402 and IRadAn=       5 diagonalized for initial guess.
 HarFok:  IExCor=  402 AccDes= 0.00D+00 IRadAn=         5 IDoV= 1 UseB2=F ITyADJ=14
 ICtDFT=  3500011 ScaDFX=  1.000000  1.000000  1.000000  1.000000
 Defaulting to unpruned grid for atomic number  78.
 Defaulting to unpruned grid for atomic number  78.
 Defaulting to unpruned grid for atomic number  78.
 Defaulting to unpruned grid for atomic number  78.
 FoFCou: FMM=F IPFlag=           0 FMFlag=      100000 FMFlg1=           0
         NFxFlg=           0 DoJE=T BraDBF=F KetDBF=T FulRan=T
         wScrn=  0.000000 ICntrl=     500 IOpCl=  0 I1Cent=   200000004 NGrid=           0
         NMat0=    1 NMatS0=      1 NMatT0=    0 NMatD0=    1 NMtDS0=    0 NMtDT0=    0
 Petite list used in FoFCou.
 Keep R1 ints in memory in canonical form, NReq=281271091.
 Requested convergence on RMS density matrix=1.00D-08 within 128 cycles.
 Requested convergence on MAX density matrix=1.00D-06.
 Requested convergence on             energy=1.00D-06.
 No special actions if energy rises.
 Defaulting to unpruned grid for atomic number  78.
 Defaulting to unpruned grid for atomic number  78.
 Defaulting to unpruned grid for atomic number  78.
 Defaulting to unpruned grid for atomic number  78.
 Inv3:  Mode=1 IEnd=     8864883.
 Iteration    1 A*A^-1 deviation from unit magnitude is 7.66D-15 for     12.
 Iteration    1 A*A^-1 deviation from orthogonality  is 5.47D-15 for   1014    235.
 Iteration    1 A^-1*A deviation from unit magnitude is 6.22D-15 for   1394.
 Iteration    1 A^-1*A deviation from orthogonality  is 1.25D-14 for   1008    993.
 Error on total polarization charges =  0.00978
 SCF Done:  E(RB3LYP) =  -4228.46982662     A.U. after   12 cycles
            NFock= 12  Conv=0.71D-08     -V/T= 2.0219
   1 Symmetry operations used in ECPInt.
 ECPInt:  NShTT=    4095 NPrTT=   18359 LenC2=    3813 LenP2D=   11966.
 LDataN:  DoStor=T MaxTD1= 7 Len=  274
 D1PCM: PCM CHGder 1st derivatives, ID1Alg=3 FixD1E=F DoIter=F DoCFld=F I1PDM=0.
 Calling FoFJK, ICntrl=      2127 FMM=F ISym2X=0 I1Cent= 0 IOpClX= 0 NMat=1 NMatS=1 NMatT=0.
 Defaulting to unpruned grid for atomic number  78.
 Defaulting to unpruned grid for atomic number  78.
 Defaulting to unpruned grid for atomic number  78.
 Defaulting to unpruned grid for atomic number  78.
 ***** Axes restored to original set *****
 -------------------------------------------------------------------
 Center     Atomic                   Forces (Hartrees/Bohr)
 Number     Number              X              Y              Z
 -------------------------------------------------------------------
      1       78          -0.000232240    0.000073368    0.000724800
      2        7          -0.000406825    0.001854377    0.002033216
      3        7           0.000683239    0.001489062   -0.000431649
      4        8           0.000164089   -0.000664188   -0.001220686
      5        8          -0.000140035   -0.001354138   -0.001001311
      6        8          -0.000674883   -0.000567403   -0.000226380
      7        8           0.000179385   -0.001190116    0.000620922
      8       35           0.000377133   -0.000005735    0.000152540
      9        7           0.000811778   -0.000474316   -0.001415310
     10        8           0.000448052    0.000087517    0.001413583
     11        8          -0.000780105    0.000587758    0.000124028
     12       17          -0.000502881    0.000192554    0.000274992
     13       17           0.000073292   -0.000028740   -0.001048744
 -------------------------------------------------------------------
 Cartesian Forces:  Max     0.002033216 RMS     0.000822292

 GradGradGradGradGradGradGradGradGradGradGradGradGradGradGradGradGradGrad
 Berny optimization.
 Search for a local minimum.
 Step number   3 out of a maximum of   49
 All quantities printed in internal units (Hartrees-Bohrs-Radians)
 Update second derivatives using D2CorN and points    1    2    3
 DE= -1.83D-04 DEPred=-1.71D-04 R= 1.07D+00
 TightC=F SS=  1.41D+00  RLast= 1.18D-01 DXNew= 8.4853D-01 3.5543D-01
 Trust test= 1.07D+00 RLast= 1.18D-01 DXMaxT set to 5.05D-01
 ITU=  1  1  0
     Eigenvalues ---    0.00161   0.00297   0.00726   0.01264   0.01559
     Eigenvalues ---    0.02132   0.02293   0.03297   0.03604   0.03738
     Eigenvalues ---    0.04023   0.04710   0.05717   0.07459   0.08719
     Eigenvalues ---    0.09470   0.11379   0.12600   0.13398   0.15073
     Eigenvalues ---    0.25684   0.27909   0.31448   0.31810   0.60105
     Eigenvalues ---    0.70876   1.53144   1.54939   1.55578   2.21612
     Eigenvalues ---    2.49205   2.55787   4.95539
 RFO step:  Lambda=-2.78365055D-04 EMin= 1.61219992D-03
 Quartic linear search produced a step of -0.12889.
 TrRot=  0.003030  0.000397  0.001261 -0.223852 -0.001552  0.223676
 Variable       Old X    -DE/DX   Delta X   Delta X   Delta X     New X
                                 (Linear)    (Quad)   (Total)
    X1       -0.41072  -0.00023   0.00031   0.00361   0.00713  -0.40359
    Y1        0.10850   0.00007   0.00034   0.00676   0.00754   0.11605
    Z1       -0.09539   0.00072  -0.00023  -0.00830  -0.00793  -0.10332
    X2       -0.22646  -0.00041  -0.00028  -0.02341  -0.02654  -0.25300
    Y2       -0.45355   0.00185   0.00017   0.00533   0.00726  -0.44630
    Z2        3.83831   0.00203  -0.00069  -0.00716  -0.00682   3.83149
    X3        0.37011   0.00068  -0.00006   0.00218   0.00543   0.37554
    Y3        4.06935   0.00149  -0.00010   0.00657   0.00690   4.07625
    Z3        0.30446  -0.00043  -0.00083  -0.01046  -0.01087   0.29359
    X4        1.24323   0.00016   0.00109  -0.02324  -0.02664   1.21659
    Y4        0.81024  -0.00066  -0.00052  -0.00550  -0.00409   0.80615
    Z4        5.06921  -0.00122  -0.00079  -0.00177   0.00026   5.06948
    X5       -1.65970  -0.00014   0.00276   0.02908   0.02739  -1.63231
    Y5       -1.99999  -0.00135  -0.00438  -0.06947  -0.07155  -2.07154
    Z5        4.74917  -0.00100  -0.00175  -0.04637  -0.04862   4.70055
    X6        2.26777  -0.00067   0.00179  -0.03693  -0.03352   2.23425
    Y6        4.72923  -0.00057  -0.00037   0.00727   0.00742   4.73665
    Z6        1.43121  -0.00023  -0.00341   0.05685   0.05645   1.48766
    X7       -1.09671   0.00018  -0.00379   0.02344   0.02474  -1.07197
    Y7        5.56428  -0.00119  -0.00069  -0.00159  -0.00194   5.56234
    Z7       -0.66178   0.00062   0.00380  -0.05339  -0.05187  -0.71366
    X8        4.28229   0.00038  -0.00131   0.01473   0.01709   4.29938
    Y8       -0.88356  -0.00001   0.00136   0.00062   0.00144  -0.88211
    Z8       -0.55609   0.00015  -0.00066   0.02618   0.03358  -0.52251
    X9       -1.20912   0.00081   0.00062   0.00431   0.00817  -1.20095
    Y9       -3.82031  -0.00047   0.00097   0.00501   0.00638  -3.81393
    Z9       -0.57933  -0.00142  -0.00008   0.00184   0.00252  -0.57681
   X10       -0.04233   0.00045  -0.00652   0.11914   0.11378   0.07144
   Y10       -5.33910   0.00009   0.00183   0.00845   0.01088  -5.32823
   Z10        0.70357   0.00141   0.00798  -0.09513  -0.08394   0.61962
   X11       -2.78715  -0.00078   0.00254  -0.15920  -0.15141  -2.93857
   Y11       -4.44421   0.00059   0.00147   0.01532   0.01702  -4.42719
   Z11       -2.13537   0.00012  -0.00259   0.16436   0.16010  -1.97527
   X12       -4.87836  -0.00050   0.00195  -0.00544  -0.00095  -4.87931
   Y12        0.92487   0.00019  -0.00015   0.01975   0.02101   0.94588
   Z12        0.44436   0.00027  -0.00355  -0.00442  -0.01442   0.42993
   X13       -0.63885   0.00007   0.00089   0.02416   0.03534  -0.60351
   Y13        0.78799  -0.00003   0.00007  -0.00723  -0.00827   0.77972
   Z13       -4.67347  -0.00105   0.00281  -0.03131  -0.02844  -4.70191
         Item               Value     Threshold  Converged?
 Maximum Force            0.002033     0.002500     YES
 RMS     Force            0.000822     0.001667     YES
 Maximum Displacement     0.160100     0.010000     NO 
 RMS     Displacement     0.048323     0.006667     NO 
 Predicted change in Energy=-1.336904D-04
 GradGradGradGradGradGradGradGradGradGradGradGradGradGradGradGradGradGrad

                          Input orientation:                          
 ---------------------------------------------------------------------
 Center     Atomic      Atomic             Coordinates (Angstroms)
 Number     Number       Type             X           Y           Z
 ---------------------------------------------------------------------
      1         78           0       -0.213570    0.061409   -0.054673
      2          7           0       -0.133882   -0.236169    2.027539
      3          7           0        0.198726    2.157059    0.155359
      4          8           0        0.643790    0.426596    2.682651
      5          8           0       -0.863782   -1.096210    2.487426
      6          8           0        1.182314    2.506528    0.787234
      7          8           0       -0.567261    2.943466   -0.377650
      8         35           0        2.275134   -0.466793   -0.276501
      9          7           0       -0.635517   -2.018244   -0.305236
     10          8           0        0.037807   -2.819576    0.327891
     11          8           0       -1.555023   -2.342766   -1.045267
     12         17           0       -2.582022    0.500537    0.227512
     13         17           0       -0.319362    0.412608   -2.488141
 ---------------------------------------------------------------------
                    Distance matrix (angstroms):
                    1          2          3          4          5
     1  Pt   0.000000
     2  N    2.104878   0.000000
     3  N    2.146124   3.056669   0.000000
     4  O    2.891604   1.213756   3.095123   0.000000
     5  O    2.867948   1.218162   4.141402   2.151702   0.000000
     6  O    2.938691   3.285288   1.220180   2.865088   4.478490
     7  O    2.921586   4.010341   1.220357   4.143275   4.961408
     8  Br   2.553792   3.341429   3.373807   3.495141   4.229450
     9  N    2.136768   2.978132   4.282670   4.067105   2.949782
    10  O    2.917125   3.097139   4.982224   4.055828   2.906276
    11  O    2.925890   3.987421   4.976501   5.138241   3.809414
    12  Cl   2.425289   3.126696   3.237566   4.054509   3.257171
    13  Cl   2.460955   4.565817   3.209301   5.259748   5.227733
                    6          7          8          9         10
     6  O    0.000000
     7  O    2.146831   0.000000
     8  Br   3.341621   4.440643   0.000000
     9  N    4.997156   4.962708   3.298442   0.000000
    10  O    5.467017   5.837512   3.302501   1.223253   0.000000
    11  O    5.862314   5.419007   4.333634   1.224113   2.156390
    12  Cl   4.302036   3.223878   4.978125   3.227532   4.230452
    13  Cl   4.167447   3.304673   3.520811   3.282388   4.301700
                   11         12         13
    11  O    0.000000
    12  Cl   3.280101   0.000000
    13  Cl   3.346765   3.535836   0.000000
 Stoichiometry    BrCl2N3O6Pt(2-)
 Framework group  C1[X(BrCl2N3O6Pt)]
 Deg. of freedom    33
 Full point group                 C1      NOp   1
 Largest Abelian subgroup         C1      NOp   1
 Largest concise Abelian subgroup C1      NOp   1
                         Standard orientation:                         
 ---------------------------------------------------------------------
 Center     Atomic      Atomic             Coordinates (Angstroms)
 Number     Number       Type             X           Y           Z
 ---------------------------------------------------------------------
      1         78           0       -0.220516    0.048873   -0.049021
      2          7           0       -0.097113   -0.300680    2.022958
      3          7           0        0.070930    2.158598    0.215491
      4          8           0        0.648645    0.388473    2.687876
      5          8           0       -0.769479   -1.214559    2.466432
      6          8           0        1.040293    2.547889    0.846067
      7          8           0       -0.746516    2.912880   -0.286619
      8         35           0        2.291842   -0.325481   -0.313154
      9          7           0       -0.523047   -2.044344   -0.353487
     10          8           0        0.204047   -2.821732    0.249298
     11          8           0       -1.431279   -2.401988   -1.092172
     12         17           0       -2.606855    0.339765    0.271600
     13         17           0       -0.377575    0.460061   -2.470292
 ---------------------------------------------------------------------
 Rotational constants (GHZ):      0.4359454      0.3959426      0.3670159
 Basis read from rwf:  (5D, 7F)
 Pseudo-potential data read from rwf file.
 There are   232 symmetry adapted cartesian basis functions of A   symmetry.
 There are   216 symmetry adapted basis functions of A   symmetry.
   216 basis functions,   422 primitive gaussians,   232 cartesian basis functions
    79 alpha electrons       79 beta electrons
       nuclear repulsion energy      1796.4723394439 Hartrees.
 NAtoms=   13 NActive=   13 NUniq=   13 SFac= 1.00D+00 NAtFMM=   60 NAOKFM=F Big=F
 Integral buffers will be    131072 words long.
 Raffenetti 2 integral format.
 Two-electron integral symmetry is turned on.
 ------------------------------------------------------------------------------
 Polarizable Continuum Model (PCM)
 =================================
 Model                : PCM (using non-symmetric T matrix).
 Atomic radii         : UFF (Universal Force Field).
 Polarization charges : Total charges.
 Charge compensation  : None.
 Solution method      : On-the-fly selection.
 Cavity type          : Scaled VdW (van der Waals Surface) (Alpha=1.100).
 Cavity algorithm     : GePol (No added spheres)
                        Default sphere list used, NSphG=   13.
                        Lebedev-Laikov grids with approx.  5.0 points / Ang**2.
                        Smoothing algorithm: Karplus/York (Gamma=1.0000).
                        Polarization charges: spherical gaussians, with
                                              point-specific exponents (IZeta= 3).
                        Self-potential: point-specific (ISelfS= 7).
                        Self-field    : sphere-specific E.n sum rule (ISelfD= 2).
 1st derivatives      : Analytical E(r).r(x)/FMM algorithm (CHGder, D1EAlg=3).
                        Cavity 1st derivative terms included.
 Solvent              : Water, Eps=  78.355300 Eps(inf)=   1.777849
 ------------------------------------------------------------------------------
 Spheres list:
 ISph  on   Nord     Re0    Alpha      Xe            Ye            Ze
    1  Pt      1    1.3770  1.100     -0.220516      0.048873     -0.049021
    2   N      2    1.8300  1.100     -0.097113     -0.300680      2.022958
    3   N      3    1.8300  1.100      0.070930      2.158598      0.215491
    4   O      4    1.7500  1.100      0.648645      0.388473      2.687876
    5   O      5    1.7500  1.100     -0.769479     -1.214559      2.466432
    6   O      6    1.7500  1.100      1.040293      2.547889      0.846067
    7   O      7    1.7500  1.100     -0.746516      2.912880     -0.286619
    8  Br      8    2.0945  1.100      2.291842     -0.325481     -0.313154
    9   N      9    1.8300  1.100     -0.523047     -2.044344     -0.353487
   10   O     10    1.7500  1.100      0.204047     -2.821732      0.249298
   11   O     11    1.7500  1.100     -1.431279     -2.401988     -1.092172
   12  Cl     12    1.9735  1.100     -2.606855      0.339765      0.271600
   13  Cl     13    1.9735  1.100     -0.377575      0.460061     -2.470292
 ------------------------------------------------------------------------------
 One-electron integrals computed using PRISM.
   1 Symmetry operations used in ECPInt.
 ECPInt:  NShTT=    4095 NPrTT=   18359 LenC2=    3814 LenP2D=   11959.
 LDataN:  DoStor=T MaxTD1= 6 Len=  172
 NBasis=   216 RedAO= T EigKep=  5.26D-03  NBF=   216
 NBsUse=   216 1.00D-06 EigRej= -1.00D+00 NBFU=   216
 Defaulting to unpruned grid for atomic number  78.
 Initial guess from the checkpoint file:  "/scr/nqtcm/Gau-32555.chk"
 B after Tr=     0.000000    0.000000    0.000000
         Rot=    0.999878   -0.013970   -0.005238   -0.004575 Ang=  -1.79 deg.
 ExpMin= 2.90D-02 ExpMax= 1.13D+05 ExpMxC= 1.70D+04 IAcc=3 IRadAn=         5 AccDes= 0.00D+00
 Harris functional with IExCor=  402 and IRadAn=       5 diagonalized for initial guess.
 HarFok:  IExCor=  402 AccDes= 0.00D+00 IRadAn=         5 IDoV= 1 UseB2=F ITyADJ=14
 ICtDFT=  3500011 ScaDFX=  1.000000  1.000000  1.000000  1.000000
 Defaulting to unpruned grid for atomic number  78.
 Defaulting to unpruned grid for atomic number  78.
 Defaulting to unpruned grid for atomic number  78.
 Defaulting to unpruned grid for atomic number  78.
 FoFCou: FMM=F IPFlag=           0 FMFlag=      100000 FMFlg1=           0
         NFxFlg=           0 DoJE=T BraDBF=F KetDBF=T FulRan=T
         wScrn=  0.000000 ICntrl=     500 IOpCl=  0 I1Cent=   200000004 NGrid=           0
         NMat0=    1 NMatS0=      1 NMatT0=    0 NMatD0=    1 NMtDS0=    0 NMtDT0=    0
 Petite list used in FoFCou.
 Keep R1 ints in memory in canonical form, NReq=281260114.
 Requested convergence on RMS density matrix=1.00D-08 within 128 cycles.
 Requested convergence on MAX density matrix=1.00D-06.
 Requested convergence on             energy=1.00D-06.
 No special actions if energy rises.
 Defaulting to unpruned grid for atomic number  78.
 Defaulting to unpruned grid for atomic number  78.
 Defaulting to unpruned grid for atomic number  78.
 Defaulting to unpruned grid for atomic number  78.
 Inv3:  Mode=1 IEnd=     8833968.
 Iteration    1 A*A^-1 deviation from unit magnitude is 6.44D-15 for   1295.
 Iteration    1 A*A^-1 deviation from orthogonality  is 3.97D-15 for   1437    799.
 Iteration    1 A^-1*A deviation from unit magnitude is 6.55D-15 for     85.
 Iteration    1 A^-1*A deviation from orthogonality  is 3.61D-13 for   1054   1022.
 Error on total polarization charges =  0.00981
 SCF Done:  E(RB3LYP) =  -4228.46958769     A.U. after   13 cycles
[...]
      9        7           0.000260673   -0.000069586   -0.000098765
     10        8          -0.000152395    0.000001737   -0.000087757
     11        8           0.000135775   -0.000070246    0.000101876
     12       17           0.000035621   -0.000021672   -0.000008212
     13       17           0.000073602   -0.000091491    0.000023113
 -------------------------------------------------------------------
 Cartesian Forces:  Max     0.000285064 RMS     0.000106864

 GradGradGradGradGradGradGradGradGradGradGradGradGradGradGradGradGradGrad
 Berny optimization.
 Search for a local minimum.
 Step number  10 out of a maximum of   49
 All quantities printed in internal units (Hartrees-Bohrs-Radians)
 Update second derivatives using D2CorN and points    1    2    4    3    5
                                                          6    7    9    8
 ITU=  0 -1  1  1  0  0 -1  1  1  0
 Energy rises -- skip Quadratic search.
 Quartic linear search produced a step of -0.89513.
 TrRot=  0.000000  0.000000  0.000000  0.000000  0.000000  0.000000
 Variable       Old X    -DE/DX   Delta X   Delta X   Delta X     New X
                                 (Linear)    (Quad)   (Total)
    X1       -0.40630  -0.00023   0.00005   0.00000   0.00005  -0.40625
    Y1        0.11542   0.00006  -0.00002   0.00000  -0.00002   0.11540
    Z1       -0.09894   0.00000   0.00001   0.00000   0.00001  -0.09892
    X2       -0.23829  -0.00019  -0.00020   0.00000  -0.00020  -0.23849
    Y2       -0.46116  -0.00007   0.00012   0.00000   0.00012  -0.46104
    Z2        3.83307   0.00013   0.00000   0.00000   0.00000   3.83307
    X3        0.37608   0.00001   0.00020   0.00000   0.00020   0.37628
    Y3        4.07355  -0.00029  -0.00003   0.00000  -0.00003   4.07352
    Z3        0.29493  -0.00005  -0.00006   0.00000  -0.00006   0.29486
    X4        1.20270   0.00005  -0.00137   0.00000  -0.00137   1.20133
    Y4        0.81512   0.00009   0.00116   0.00000   0.00116   0.81628
    Z4        5.08047   0.00000   0.00030   0.00000   0.00030   5.08078
    X5       -1.63519   0.00004   0.00088   0.00000   0.00088  -1.63431
    Y5       -2.06014   0.00007  -0.00096   0.00000  -0.00096  -2.06110
    Z5        4.71054  -0.00005  -0.00015   0.00000  -0.00015   4.71039
    X6        2.26513  -0.00006   0.00074   0.00000   0.00074   2.26586
    Y6        4.73416   0.00018  -0.00027   0.00000  -0.00027   4.73389
    Z6        1.43308   0.00000  -0.00083   0.00000  -0.00083   1.43225
    X7       -1.09096   0.00005  -0.00031   0.00000  -0.00031  -1.09126
    Y7        5.56138   0.00010  -0.00004   0.00000  -0.00004   5.56134
    Z7       -0.67783  -0.00001   0.00073   0.00000   0.00073  -0.67710
    X8        4.29495  -0.00002   0.00005   0.00000   0.00005   4.29500
    Y8       -0.86895   0.00010  -0.00020   0.00000  -0.00020  -0.86916
    Z8       -0.53448   0.00005   0.00030   0.00000   0.00030  -0.53419
    X9       -1.20697   0.00026  -0.00017   0.00000  -0.00017  -1.20714
    Y9       -3.81376  -0.00007   0.00002   0.00000   0.00002  -3.81374
    Z9       -0.57358  -0.00010   0.00005   0.00000   0.00005  -0.57353
   X10        0.00275  -0.00015   0.00053   0.00000   0.00053   0.00327
   Y10       -5.33300   0.00000  -0.00004   0.00000  -0.00004  -5.33304
   Z10        0.67043  -0.00009  -0.00065   0.00000  -0.00065   0.66978
   X11       -2.85167   0.00014  -0.00061   0.00000  -0.00061  -2.85228
   Y11       -4.43048  -0.00007   0.00017   0.00000   0.00017  -4.43032
   Z11       -2.06262   0.00010   0.00045   0.00000   0.00045  -2.06216
   X12       -4.87479   0.00004   0.00004   0.00000   0.00004  -4.87475
   Y12        0.95343  -0.00002   0.00011   0.00000   0.00011   0.95353
   Z12        0.45746  -0.00001  -0.00015   0.00000  -0.00015   0.45730
   X13       -0.62344   0.00007   0.00018   0.00000   0.00018  -0.62326
   Y13        0.76820  -0.00009  -0.00001   0.00000  -0.00001   0.76819
   Z13       -4.69368   0.00002   0.00001   0.00000   0.00001  -4.69367
         Item               Value     Threshold  Converged?
 Maximum Force            0.000285     0.002500     YES
 RMS     Force            0.000107     0.001667     YES
 Maximum Displacement     0.001372     0.010000     YES
 RMS     Displacement     0.000470     0.006667     YES
 Predicted change in Energy=-4.003996D-07
 Optimization completed.
    -- Stationary point found.
 GradGradGradGradGradGradGradGradGradGradGradGradGradGradGradGradGradGrad

                          Input orientation:                          
 ---------------------------------------------------------------------
 Center     Atomic      Atomic             Coordinates (Angstroms)
 Number     Number       Type             X           Y           Z
 ---------------------------------------------------------------------
      1         78           0       -0.215003    0.061077   -0.052355
      2          7           0       -0.126098   -0.244036    2.028372
      3          7           0        0.199012    2.155630    0.156068
      4          8           0        0.636442    0.431345    2.688471
      5          8           0       -0.865305   -1.090179    2.492711
      6          8           0        1.198653    2.505207    0.758355
      7          8           0       -0.577310    2.942953   -0.358692
      8         35           0        2.272788   -0.459830   -0.282835
      9          7           0       -0.638703   -2.018154   -0.303527
     10          8           0        0.001453   -2.822102    0.354776
     11          8           0       -1.509040   -2.344511   -1.091490
     12         17           0       -2.579627    0.504531    0.242075
     13         17           0       -0.329909    0.406514   -2.483787
 ---------------------------------------------------------------------
                    Distance matrix (angstroms):
                    1          2          3          4          5
     1  Pt   0.000000
     2  N    2.104857   0.000000
     3  N    2.145227   3.060983   0.000000
     4  O    2.893818   1.213811   3.094765   0.000000
     5  O    2.868039   1.215728   4.138593   2.146765   0.000000
     6  O    2.937592   3.305488   1.218292   2.888310   4.493853
     7  O    2.920671   4.007315   1.219644   4.131171   4.947687
     8  Br   2.552169   3.338098   3.366572   3.507204   4.236582
     9  N    2.136776   2.974561   4.281760   4.071621   2.954900
    10  O    2.919816   3.076298   4.985612   4.053919   2.884717
    11  O    2.922531   4.007251   4.972435   5.157187   3.851525
    12  Cl   2.423796   3.125862   3.233320   4.041449   3.247671
    13  Cl   2.458535   4.563369   3.210607   5.261816   5.224201
                    6          7          8          9         10
     6  O    0.000000
     7  O    2.143236   0.000000
     8  Br   3.321037   4.439341   0.000000
     9  N    4.996426   4.961794   3.302359   0.000000
    10  O    5.475069   5.837796   3.338538   1.220448   0.000000
    11  O    5.854340   5.418708   4.302111   1.218557   2.145079
    12  Cl   4.306350   3.211868   4.975083   3.229367   4.212025
    13  Cl   4.153613   3.318247   3.516927   3.275348   4.311752
                   11         12         13
    11  O    0.000000
    12  Cl   3.322890   0.000000
    13  Cl   3.301058   3.535698   0.000000
 Stoichiometry    BrCl2N3O6Pt(2-)
 Framework group  C1[X(BrCl2N3O6Pt)]
 Deg. of freedom    33
 Full point group                 C1      NOp   1
 Largest Abelian subgroup         C1      NOp   1
 Largest concise Abelian subgroup C1      NOp   1
                         Standard orientation:                         
 ---------------------------------------------------------------------
 Center     Atomic      Atomic             Coordinates (Angstroms)
 Number     Number       Type             X           Y           Z
 ---------------------------------------------------------------------
      1         78           0       -0.219461    0.050410   -0.050584
      2          7           0       -0.115647   -0.284390    2.024880
      3          7           0        0.101453    2.157576    0.192044
      4          8           0        0.616675    0.413264    2.695941
      5          8           0       -0.816292   -1.169939    2.475319
      6          8           0        1.085042    2.541245    0.799980
      7          8           0       -0.709369    2.918009   -0.309794
      8         35           0        2.288810   -0.355866   -0.289505
      9          7           0       -0.550760   -2.041182   -0.335707
     10          8           0        0.124867   -2.826600    0.309382
     11          8           0       -1.406333   -2.392893   -1.128912
     12         17           0       -2.601208    0.383737    0.251014
     13         17           0       -0.351287    0.430063   -2.476049
 ---------------------------------------------------------------------
 Rotational constants (GHZ):      0.4354773      0.3962522      0.3678050

 **********************************************************************

            Population analysis using the SCF density.

 **********************************************************************

 Orbital symmetries:
       Occupied  (A) (A) (A) (A) (A) (A) (A) (A) (A) (A) (A) (A)
                 (A) (A) (A) (A) (A) (A) (A) (A) (A) (A) (A) (A)
                 (A) (A) (A) (A) (A) (A) (A) (A) (A) (A) (A) (A)
                 (A) (A) (A) (A) (A) (A) (A) (A) (A) (A) (A) (A)
                 (A) (A) (A) (A) (A) (A) (A) (A) (A) (A) (A) (A)
                 (A) (A) (A) (A) (A) (A) (A) (A) (A) (A) (A) (A)
                 (A) (A) (A) (A) (A) (A) (A)
       Virtual   (A) (A) (A) (A) (A) (A) (A) (A) (A) (A) (A) (A)
                 (A) (A) (A) (A) (A) (A) (A) (A) (A) (A) (A) (A)
                 (A) (A) (A) (A) (A) (A) (A) (A) (A) (A) (A) (A)
                 (A) (A) (A) (A) (A) (A) (A) (A) (A) (A) (A) (A)
                 (A) (A) (A) (A) (A) (A) (A) (A) (A) (A) (A) (A)
                 (A) (A) (A) (A) (A) (A) (A) (A) (A) (A) (A) (A)
                 (A) (A) (A) (A) (A) (A) (A) (A) (A) (A) (A) (A)
                 (A) (A) (A) (A) (A) (A) (A) (A) (A) (A) (A) (A)
                 (A) (A) (A) (A) (A) (A) (A) (A) (A) (A) (A) (A)
                 (A) (A) (A) (A) (A) (A) (A) (A) (A) (A) (A) (A)
                 (A) (A) (A) (A) (A) (A) (A) (A) (A) (A) (A) (A)
                 (A) (A) (A) (A) (A)
 The electronic state is 1-A.
 Alpha  occ. eigenvalues -- -482.75054-101.45206-101.43640 -62.43172 -56.26373
 Alpha  occ. eigenvalues --  -56.26074 -56.26069 -19.16185 -19.16100 -19.14803
 Alpha  occ. eigenvalues --  -19.14726 -19.14698 -19.14575 -14.53428 -14.51389
 Alpha  occ. eigenvalues --  -14.51289  -9.40401  -9.38838  -8.64892  -7.17204
 Alpha  occ. eigenvalues --   -7.16390  -7.16376  -7.15562  -7.14865  -7.14862
 Alpha  occ. eigenvalues --   -6.48080  -6.47030  -6.47014  -4.01506  -2.59521
 Alpha  occ. eigenvalues --   -2.59235  -2.59224  -2.58398  -2.58398  -2.22648
 Alpha  occ. eigenvalues --   -2.22558  -2.22487  -1.20729  -1.18960  -1.18855
 Alpha  occ. eigenvalues --   -1.03821  -1.01934  -1.01819  -0.75507  -0.73919
 Alpha  occ. eigenvalues --   -0.72118  -0.63669  -0.62829  -0.60480  -0.53924
 Alpha  occ. eigenvalues --   -0.52545  -0.52065  -0.50667  -0.50334  -0.50182
 Alpha  occ. eigenvalues --   -0.49755  -0.48983  -0.48803  -0.39766  -0.37152
 Alpha  occ. eigenvalues --   -0.36699  -0.35814  -0.35301  -0.31430  -0.31036
 Alpha  occ. eigenvalues --   -0.30324  -0.29992  -0.29664  -0.28881  -0.28330
 Alpha  occ. eigenvalues --   -0.27450  -0.27019  -0.26688  -0.25577  -0.25550
 Alpha  occ. eigenvalues --   -0.25426  -0.24680  -0.24660  -0.23046
 Alpha virt. eigenvalues --   -0.11084  -0.07804  -0.04895  -0.04291  -0.03079
 Alpha virt. eigenvalues --    0.05262   0.06210   0.06815   0.10532   0.22605
 Alpha virt. eigenvalues --    0.23761   0.25205   0.28423   0.31962   0.33493
 Alpha virt. eigenvalues --    0.36884   0.37471   0.38568   0.40077   0.40745
 Alpha virt. eigenvalues --    0.42294   0.44173   0.48795   0.50093   0.57791
 Alpha virt. eigenvalues --    0.57825   0.60034   0.60449   0.60976   0.65025
 Alpha virt. eigenvalues --    0.65527   0.67829   0.68408   0.70604   0.70855
 Alpha virt. eigenvalues --    0.71852   0.75133   0.79142   0.80249   0.80885
 Alpha virt. eigenvalues --    0.81180   0.82106   0.82753   0.83259   0.84528
 Alpha virt. eigenvalues --    0.86931   0.87866   0.89032   0.89549   0.90526
 Alpha virt. eigenvalues --    0.90995   0.91888   0.92546   0.93099   0.94146
 Alpha virt. eigenvalues --    0.94960   0.97138   0.97723   0.98863   0.99073
 Alpha virt. eigenvalues --    1.01716   1.02199   1.03676   1.03945   1.05126
 Alpha virt. eigenvalues --    1.05919   1.08318   1.09147   1.10213   1.11230
 Alpha virt. eigenvalues --    1.11900   1.14416   1.16548   1.18462   1.22108
 Alpha virt. eigenvalues --    1.22982   1.27284   1.28019   1.34988   1.37404
 Alpha virt. eigenvalues --    1.38329   1.39848   1.41334   1.43942   1.45234
 Alpha virt. eigenvalues --    1.49629   1.81372   1.81718   1.86327   1.91348
 Alpha virt. eigenvalues --    1.94334   1.98979   2.03599   2.06389   2.09597
 Alpha virt. eigenvalues --    2.39572   2.40317   2.41846   2.42206   2.43574
 Alpha virt. eigenvalues --    2.45365   2.61282   2.61968   2.62976   2.63047
 Alpha virt. eigenvalues --    2.64070   2.64234   2.64681   2.66296   2.67384
 Alpha virt. eigenvalues --    2.71331   2.72157   2.72349   2.99958   3.00133
 Alpha virt. eigenvalues --    3.01569   3.05607   3.06973   3.07147   3.30181
 Alpha virt. eigenvalues --    3.30529   3.30766   3.33633   3.39310   3.40556
 Alpha virt. eigenvalues --    3.45555   3.47825   3.57094   3.57573   3.69001
 Alpha virt. eigenvalues --    3.71530   3.71923   3.73550   3.75429   3.76875
 Alpha virt. eigenvalues --    3.78906   7.73142
          Condensed to atoms (all electrons):
               1          2          3          4          5          6
     1  Pt  17.101876   0.126474   0.136847  -0.029932  -0.030133  -0.028101
     2  N    0.126474   6.210013  -0.002420   0.288448   0.272715  -0.003234
     3  N    0.136847  -0.002420   6.187077  -0.004215  -0.000056   0.288735
     4  O   -0.029932   0.288448  -0.004215   8.091007  -0.100377   0.003684
     5  O   -0.030133   0.272715  -0.000056  -0.100377   8.112398   0.000006
     6  O   -0.028101  -0.003234   0.288735   0.003684   0.000006   8.114599
     7  O   -0.020678  -0.000216   0.271667   0.000034   0.000001  -0.101742
     8  Br   0.229812  -0.008960  -0.009803   0.000651  -0.000079   0.000666
     9  N    0.128356  -0.008967  -0.002119   0.000086  -0.001635   0.000043
    10  O   -0.026524  -0.000919   0.000043  -0.000032   0.000269  -0.000001
    11  O   -0.014182  -0.000029   0.000046   0.000000  -0.000089   0.000000
    12  Cl   0.251651  -0.013564  -0.008571  -0.000190  -0.000128  -0.000005
    13  Cl   0.260643  -0.001091  -0.004870   0.000018   0.000022  -0.000071
               7          8          9         10         11         12
     1  Pt  -0.020678   0.229812   0.128356  -0.026524  -0.014182   0.251651
     2  N   -0.000216  -0.008960  -0.008967  -0.000919  -0.000029  -0.013564
     3  N    0.271667  -0.009803  -0.002119   0.000043   0.000046  -0.008571
     4  O    0.000034   0.000651   0.000086  -0.000032   0.000000  -0.000190
     5  O    0.000001  -0.000079  -0.001635   0.000269  -0.000089  -0.000128
     6  O   -0.101742   0.000666   0.000043  -0.000001   0.000000  -0.000005
     7  O    8.132724  -0.000036   0.000051   0.000000  -0.000001  -0.000343
     8  Br  -0.000036  34.996116  -0.011233   0.000572  -0.000187  -0.001234
     9  N    0.000051  -0.011233   6.201944   0.276655   0.272821  -0.006822
    10  O    0.000000   0.000572   0.276655   8.132643  -0.098937  -0.000040
    11  O   -0.000001  -0.000187   0.272821  -0.098937   8.122185  -0.000342
    12  Cl  -0.000343  -0.001234  -0.006822  -0.000040  -0.000342  17.036091
    13  Cl  -0.000609  -0.014187  -0.005091   0.000003  -0.000403  -0.007104
              13
     1  Pt   0.260643
     2  N   -0.001091
     3  N   -0.004870
     4  O    0.000018
     5  O    0.000022
     6  O   -0.000071
     7  O   -0.000609
     8  Br  -0.014187
     9  N   -0.005091
    10  O    0.000003
    11  O   -0.000403
    12  Cl  -0.007104
    13  Cl  17.078288
 Mulliken charges:
               1
     1  Pt  -0.086107
     2  N    0.141749
     3  N    0.147637
     4  O   -0.249181
     5  O   -0.252914
     6  O   -0.274579
     7  O   -0.280853
     8  Br  -0.182099
     9  N    0.155910
    10  O   -0.283733
    11  O   -0.280882
    12  Cl  -0.249400
    13  Cl  -0.305548
 Sum of Mulliken charges =  -2.00000
 Mulliken charges with hydrogens summed into heavy atoms:
               1
     1  Pt  -0.086107
     2  N    0.141749
     3  N    0.147637
     4  O   -0.249181
     5  O   -0.252914
     6  O   -0.274579
     7  O   -0.280853
     8  Br  -0.182099
     9  N    0.155910
    10  O   -0.283733
    11  O   -0.280882
    12  Cl  -0.249400
    13  Cl  -0.305548
 Electronic spatial extent (au):  <R**2>=           3611.1058
 Charge=             -2.0000 electrons
 Dipole moment (field-independent basis, Debye):
    X=              2.3187    Y=             -0.4442    Z=              1.0382  Tot=              2.5790
 Quadrupole moment (field-independent basis, Debye-Ang):
   XX=           -145.6787   YY=           -155.7828   ZZ=           -147.7139
   XY=             -2.9844   XZ=             -5.2392   YZ=              0.6907
 Traceless Quadrupole moment (field-independent basis, Debye-Ang):
   XX=              4.0464   YY=             -6.0577   ZZ=              2.0113
   XY=             -2.9844   XZ=             -5.2392   YZ=              0.6907
 Octapole moment (field-independent basis, Debye-Ang**2):
  XXX=             46.6070  YYY=             -8.4148  ZZZ=             -7.7707  XYY=             19.1602
  XXY=             -3.9998  XXZ=              0.3311  XZZ=             14.8176  YZZ=              1.2453
  YYZ=             -2.0998  XYZ=             -5.5138
 Hexadecapole moment (field-independent basis, Debye-Ang**3):
 XXXX=          -1519.0761 YYYY=          -1751.9052 ZZZZ=          -1440.0936 XXXY=            -16.7704
 XXXZ=            -14.3260 YYYX=            -26.1892 YYYZ=             -2.1534 ZZZX=            -26.2341
 ZZZY=             20.0491 XXYY=           -526.2871 XXZZ=           -476.2650 YYZZ=           -486.0216
 XXYZ=            -10.2005 YYXZ=            -33.5686 ZZXY=            -27.2409
 N-N= 1.797272060471D+03 E-N=-1.367688740534D+04  KE= 4.137748839204D+03
 1\1\GINC-NQTCM01\FOpt\RB3LYP\Gen\Br1Cl2N3O6Pt1(2-)\NQTCM\10-May-2022\0
 \\#b3lyp/gen pseudo=read opt=(loose,cartesian) scrf=(solvent=water)\\E
 strutura 51\\-2,1\Pt,-0.2150028885,0.0610769173,-0.0523547368\N,-0.126
 0981866,-0.2440363745,2.0283721497\N,0.1990123474,2.1556295988,0.15606
 76804\O,0.6364418573,0.4313448988,2.6884713963\O,-0.865304959,-1.09017
 91133,2.492711446\O,1.1986530911,2.5052072717,0.7583550781\O,-0.577309
 6973,2.9429532678,-0.3586924948\Br,2.2727876668,-0.4598301997,-0.28283
 50128\N,-0.6387026193,-2.0181542423,-0.3035270358\O,0.0014527235,-2.82
 21015771,0.3547764394\O,-1.5090395441,-2.3445113717,-1.0914896744\Cl,-
 2.5796267539,0.5045310917,0.2420751006\Cl,-0.3299090376,0.4065138326,-
 2.4837873362\\Version=EM64L-G09RevD.01\State=1-A\HF=-4228.4698866\RMSD
 =2.988e-09\RMSF=1.069e-04\Dipole=0.9035935,-0.2083097,0.4119134\Quadru
 pole=2.7969956,-4.2684907,1.4714951,-2.605638,-3.8265655,0.7799451\PG=
 C01 [X(Br1Cl2N3O6Pt1)]\\@


 IN THE LONG RUN, DIGGING FOR TRUTH HAS ALWAYS PROVED NOT ONLY 
 MORE INTERESTING BUT MORE PROFITABLE THAN DIGGING FOR GOLD.

                             -- GEORGE R. HARRISON
 Job cpu time:       0 days  0 hours 17 minutes  3.5 seconds.
 File lengths (MBytes):  RWF=    122 Int=      0 D2E=      0 Chk=      5 Scr=      1
 Normal termination of Gaussian 09 at Tue May 10 10:56:09 2022.
