 Entering Gaussian System, Link 0=g09
 Input=estrutura59_D2O.com
 Output=estrutura59_D2O.log
 Initial command:
 /scr/programs/g09/l1.exe /scr/guest/Gau-13139.inp -scrdir=/scr/guest/
 Entering Link 1 = /scr/programs/g09/l1.exe PID=     13140.
  
 Copyright (c) 1988,1990,1992,1993,1995,1998,2003,2009, Gaussian, Inc.
                  All Rights Reserved.
  
 This is part of the Gaussian(R) 09 program.  It is based on
 the Gaussian(R) 03 system (copyright 2003, Gaussian, Inc.),
 the Gaussian(R) 98 system (copyright 1998, Gaussian, Inc.),
 the Gaussian(R) 94 system (copyright 1995, Gaussian, Inc.),
 the Gaussian 92(TM) system (copyright 1992, Gaussian, Inc.),
 the Gaussian 90(TM) system (copyright 1990, Gaussian, Inc.),
 the Gaussian 88(TM) system (copyright 1988, Gaussian, Inc.),
 the Gaussian 86(TM) system (copyright 1986, Carnegie Mellon
 University), and the Gaussian 82(TM) system (copyright 1983,
 Carnegie Mellon University). Gaussian is a federally registered
 trademark of Gaussian, Inc.
  
 This software contains proprietary and confidential information,
 including trade secrets, belonging to Gaussian, Inc.
  
 This software is provided under written license and may be
 used, copied, transmitted, or stored only in accord with that
 written license.
  
 The following legend is applicable only to US Government
 contracts under FAR:
  
                    RESTRICTED RIGHTS LEGEND
  
 Use, reproduction and disclosure by the US Government is
 subject to restrictions as set forth in subparagraphs (a)
 and (c) of the Commercial Computer Software - Restricted
 Rights clause in FAR 52.227-19.
  
 Gaussian, Inc.
 340 Quinnipiac St., Bldg. 40, Wallingford CT 06492
  
  
 ---------------------------------------------------------------
 Warning -- This program may not be used in any manner that
 competes with the business of Gaussian, Inc. or will provide
 assistance to any competitor of Gaussian, Inc.  The licensee
 of this program is prohibited from giving any competitor of
 Gaussian, Inc. access to this program.  By using this program,
 the user acknowledges that Gaussian, Inc. is engaged in the
 business of creating and licensing software in the field of
 computational chemistry and represents and warrants to the
 licensee that it is not a competitor of Gaussian, Inc. and that
 it will not use this program in any manner prohibited above.
 ---------------------------------------------------------------
  

 Cite this work as:
 Gaussian 09, Revision A.02,
 M. J. Frisch, G. W. Trucks, H. B. Schlegel, G. E. Scuseria, 
 M. A. Robb, J. R. Cheeseman, G. Scalmani, V. Barone, B. Mennucci, 
 G. A. Petersson, H. Nakatsuji, M. Caricato, X. Li, H. P. Hratchian, 
 A. F. Izmaylov, J. Bloino, G. Zheng, J. L. Sonnenberg, M. Hada, 
 M. Ehara, K. Toyota, R. Fukuda, J. Hasegawa, M. Ishida, T. Nakajima, 
 Y. Honda, O. Kitao, H. Nakai, T. Vreven, J. A. Montgomery, Jr., 
 J. E. Peralta, F. Ogliaro, M. Bearpark, J. J. Heyd, E. Brothers, 
 K. N. Kudin, V. N. Staroverov, R. Kobayashi, J. Normand, 
 K. Raghavachari, A. Rendell, J. C. Burant, S. S. Iyengar, J. Tomasi, 
 M. Cossi, N. Rega, J. M. Millam, M. Klene, J. E. Knox, J. B. Cross, 
 V. Bakken, C. Adamo, J. Jaramillo, R. Gomperts, R. E. Stratmann, 
 O. Yazyev, A. J. Austin, R. Cammi, C. Pomelli, J. W. Ochterski, 
 R. L. Martin, K. Morokuma, V. G. Zakrzewski, G. A. Voth, 
 P. Salvador, J. J. Dannenberg, S. Dapprich, A. D. Daniels, 
 O. Farkas, J. B. Foresman, J. V. Ortiz, J. Cioslowski, 
 and D. J. Fox, Gaussian, Inc., Wallingford CT, 2009.
 
 ******************************************
 Gaussian 09:  EM64L-G09RevA.02 11-Jun-2009
                 1-Dec-2021 
 ******************************************
 %mem=30gb
 %nproc=24
 Will use up to   24 processors via shared memory.
 ------------------------------------------------------------
 #b3lyp/gen pseudo=read opt freq=noraman scrf=(solvent=water)
 ------------------------------------------------------------
 1/14=-1,18=20,19=15,26=3,38=1/1,3;
 2/9=110,12=2,17=6,18=5,40=1/2;
 3/5=7,11=2,16=1,17=8,25=1,30=1,70=2201,71=1,72=1,74=-5/1,2,3;
 4//1;
 5/5=2,38=5,53=1/2;
 6/7=2,8=2,9=2,10=2,28=1/1;
 7//1,2,3,16;
 1/14=-1,18=20,19=15/3(2);
 2/9=110/2;
 99//99;
 2/9=110/2;
 3/5=7,6=1,11=2,16=1,17=8,25=1,30=1,70=2205,71=1,72=1,74=-5,82=7/1,2,3;
 4/5=5,16=3/1;
 5/5=2,38=5,53=1/2;
 7//1,2,3,16;
 1/14=-1,18=20,19=15/3(-5);
 2/9=110/2;
 6/7=2,8=2,9=2,10=2,19=2,28=1/1;
 99/9=1/99;
 ------------
 Estrutura 59
 ------------
 Symbolic Z-matrix:
 Charge = -2 Multiplicity = 1
 Pt                   -0.03445  -0.15013  -0.15175 
 N                    -1.11871   0.10841  -1.94727 
 O                    -2.32009  -0.1056   -1.94228 
 O                    -0.48732   0.44013  -2.93475 
 N                     1.46938  -1.10007  -1.29261 
 O                     1.07902  -1.90406  -2.1303 
 O                     2.64137  -0.83483  -1.10062 
 N                    -0.92351  -2.06527   0.11948 
 O                    -0.16064  -3.00797   0.26799 
 O                    -2.136    -2.16018   0.11445 
 Br                    1.30984  -0.51036   2.05008 
 Br                   -1.93555   1.03865   1.1732 
 Br                    1.13332   2.14852  -0.49517 
 

 GradGradGradGradGradGradGradGradGradGradGradGradGradGradGradGradGradGrad
 Berny optimization.
 Initialization pass.
                           ----------------------------
                           !    Initial Parameters    !
                           ! (Angstroms and Degrees)  !
 --------------------------                            --------------------------
 ! Name  Definition              Value          Derivative Info.                !
 --------------------------------------------------------------------------------
 ! R1    R(1,2)                  2.1134         estimate D2E/DX2                !
 ! R2    R(1,5)                  2.1132         estimate D2E/DX2                !
 ! R3    R(1,8)                  2.1288         estimate D2E/DX2                !
 ! R4    R(1,11)                 2.6048         estimate D2E/DX2                !
 ! R5    R(1,12)                 2.6044         estimate D2E/DX2                !
 ! R6    R(1,13)                 2.601          estimate D2E/DX2                !
 ! R7    R(2,3)                  1.2203         estimate D2E/DX2                !
 ! R8    R(2,4)                  1.2181         estimate D2E/DX2                !
 ! R9    R(5,6)                  1.225          estimate D2E/DX2                !
 ! R10   R(5,7)                  1.2169         estimate D2E/DX2                !
 ! R11   R(8,9)                  1.2218         estimate D2E/DX2                !
 ! R12   R(8,10)                 1.2162         estimate D2E/DX2                !
 ! A1    A(2,1,5)               87.789          estimate D2E/DX2                !
 ! A2    A(2,1,8)               90.2315         estimate D2E/DX2                !
 ! A3    A(2,1,12)              90.1078         estimate D2E/DX2                !
 ! A4    A(2,1,13)              90.5759         estimate D2E/DX2                !
 ! A5    A(5,1,8)               87.798          estimate D2E/DX2                !
 ! A6    A(5,1,11)              91.5427         estimate D2E/DX2                !
 ! A7    A(5,1,13)              90.3717         estimate D2E/DX2                !
 ! A8    A(8,1,11)              89.0499         estimate D2E/DX2                !
 ! A9    A(8,1,12)              92.348          estimate D2E/DX2                !
 ! A10   A(11,1,12)             90.562          estimate D2E/DX2                !
 ! A11   A(11,1,13)             90.1216         estimate D2E/DX2                !
 ! A12   A(12,1,13)             89.5132         estimate D2E/DX2                !
 ! A13   A(1,2,3)              118.6956         estimate D2E/DX2                !
 ! A14   A(1,2,4)              117.1369         estimate D2E/DX2                !
 ! A15   A(3,2,4)              124.1511         estimate D2E/DX2                !
 ! A16   A(1,5,6)              115.9426         estimate D2E/DX2                !
 ! A17   A(1,5,7)              120.1481         estimate D2E/DX2                !
 ! A18   A(6,5,7)              123.9091         estimate D2E/DX2                !
 ! A19   A(1,8,9)              116.6714         estimate D2E/DX2                !
 ! A20   A(1,8,10)             119.0805         estimate D2E/DX2                !
 ! A21   A(9,8,10)             124.2478         estimate D2E/DX2                !
 ! D1    D(5,1,2,3)            137.14           estimate D2E/DX2                !
 ! D2    D(5,1,2,4)            -41.4509         estimate D2E/DX2                !
 ! D3    D(8,1,2,3)             49.3526         estimate D2E/DX2                !
 ! D4    D(8,1,2,4)           -129.2383         estimate D2E/DX2                !
 ! D5    D(12,1,2,3)           -42.9959         estimate D2E/DX2                !
 ! D6    D(12,1,2,4)           138.4132         estimate D2E/DX2                !
 ! D7    D(13,1,2,3)          -132.5102         estimate D2E/DX2                !
 ! D8    D(13,1,2,4)            48.8989         estimate D2E/DX2                !
 ! D9    D(2,1,5,6)            -43.9127         estimate D2E/DX2                !
 ! D10   D(2,1,5,7)            135.9343         estimate D2E/DX2                !
 ! D11   D(8,1,5,6)             46.4042         estimate D2E/DX2                !
 ! D12   D(8,1,5,7)           -133.7487         estimate D2E/DX2                !
 ! D13   D(11,1,5,6)           135.3937         estimate D2E/DX2                !
 ! D14   D(11,1,5,7)           -44.7593         estimate D2E/DX2                !
 ! D15   D(13,1,5,6)          -134.4747         estimate D2E/DX2                !
 ! D16   D(13,1,5,7)            45.3724         estimate D2E/DX2                !
 ! D17   D(2,1,8,9)            125.2868         estimate D2E/DX2                !
 ! D18   D(2,1,8,10)           -54.5069         estimate D2E/DX2                !
 ! D19   D(5,1,8,9)             37.5084         estimate D2E/DX2                !
 ! D20   D(5,1,8,10)          -142.2853         estimate D2E/DX2                !
 ! D21   D(11,1,8,9)           -54.0722         estimate D2E/DX2                !
 ! D22   D(11,1,8,10)          126.1341         estimate D2E/DX2                !
 ! D23   D(12,1,8,9)          -144.5958         estimate D2E/DX2                !
 ! D24   D(12,1,8,10)           35.6105         estimate D2E/DX2                !
 --------------------------------------------------------------------------------
 Trust Radius=3.00D-01 FncErr=1.00D-07 GrdErr=1.00D-06
 Number of steps in this run=  67 maximum allowed number of steps= 100.
 GradGradGradGradGradGradGradGradGradGradGradGradGradGradGradGradGradGrad

                          Input orientation:                          
 ---------------------------------------------------------------------
 Center     Atomic      Atomic             Coordinates (Angstroms)
 Number     Number       Type             X           Y           Z
 ---------------------------------------------------------------------
      1         78           0       -0.034453   -0.150129   -0.151754
      2          7           0       -1.118712    0.108413   -1.947274
      3          8           0       -2.320088   -0.105598   -1.942276
      4          8           0       -0.487319    0.440134   -2.934749
      5          7           0        1.469377   -1.100068   -1.292612
      6          8           0        1.079021   -1.904061   -2.130301
      7          8           0        2.641369   -0.834830   -1.100616
      8          7           0       -0.923507   -2.065265    0.119477
      9          8           0       -0.160641   -3.007973    0.267993
     10          8           0       -2.135997   -2.160178    0.114446
     11         35           0        1.309843   -0.510362    2.050077
     12         35           0       -1.935545    1.038654    1.173201
     13         35           0        1.133316    2.148524   -0.495173
 ---------------------------------------------------------------------
                    Distance matrix (angstroms):
                    1          2          3          4          5
     1  Pt   0.000000
     2  N    2.113375   0.000000
     3  O    2.903804   1.220299   0.000000
     4  O    2.880722   1.218114   2.154500   0.000000
     5  N    2.113160   2.930395   3.971282   2.982867   0.000000
     6  O    2.868928   2.985562   3.850164   2.931861   1.224951
     7  O    2.920476   3.967965   5.084902   3.844251   1.216873
     8  N    2.128786   3.005735   3.168842   3.974365   2.941342
     9  O    2.891260   3.941722   4.239373   4.717385   2.955089
    10  O    2.920213   3.229870   2.912953   4.333284   4.012775
    11  Br   2.604795   4.718006   5.411018   5.383468   3.398054
    12  Br   2.604393   3.357071   3.341165   4.396685   4.716764
    13  Br   2.601043   3.367830   4.370489   3.390661   3.361874
                    6          7          8          9         10
     6  O    0.000000
     7  O    2.155096   0.000000
     8  N    3.016224   3.963703   0.000000
     9  O    2.916710   3.800908   1.221769   0.000000
    10  O    3.929482   5.104522   1.216210   2.155079   0.000000
    11  Br   4.412622   3.435856   3.336584   3.402383   4.282800
    12  Br   5.353532   5.443191   3.430578   4.510529   3.375451
    13  Br   4.370359   3.397232   4.729094   5.370867   5.442881
                   11         12         13
    11  Br   0.000000
    12  Br   3.701473   0.000000
    13  Br   3.684988   3.665132   0.000000
 Stoichiometry    Br3N3O6Pt(2-)
 Framework group  C1[X(Br3N3O6Pt)]
 Deg. of freedom    33
 Full point group                 C1      NOp   1
 Largest Abelian subgroup         C1      NOp   1
 Largest concise Abelian subgroup C1      NOp   1
                         Standard orientation:                         
 ---------------------------------------------------------------------
 Center     Atomic      Atomic             Coordinates (Angstroms)
 Number     Number       Type             X           Y           Z
 ---------------------------------------------------------------------
      1         78           0       -0.034453    0.150129    0.151754
      2          7           0       -1.118712   -0.108411    1.947274
      3          8           0       -2.320088    0.105602    1.942276
      4          8           0       -0.487320   -0.440133    2.934749
      5          7           0        1.469379    1.100065    1.292612
      6          8           0        1.079024    1.904059    2.130301
      7          8           0        2.641370    0.834825    1.100616
      8          7           0       -0.923503    2.065267   -0.119477
      9          8           0       -0.160635    3.007973   -0.267993
     10          8           0       -2.135993    2.160182   -0.114446
     11         35           0        1.309844    0.510360   -2.050077
     12         35           0       -1.935547   -1.038650   -1.173201
     13         35           0        1.133312   -2.148526    0.495173
 ---------------------------------------------------------------------
 Rotational constants (GHZ):      0.3019038      0.2949298      0.2917372
 General basis read from cards:  (5D, 7F)
 ======================================================================================================
                                       Pseudopotential Parameters
 ======================================================================================================
  Center     Atomic      Valence      Angular      Power
  Number     Number     Electrons     Momentum     of R      Exponent        Coefficient   SO-Coeffient
 ======================================================================================================
    1         78           18
                                      G and up 
                                                     1      728.9394056       -0.16192680    0.00000000
                                                     2      320.6567800    -1320.28738520    0.00000000
                                                     2       52.8680174     -298.31781350    0.00000000
                                                     2       12.0280128      -87.58370650    0.00000000
                                                     2        3.5238913       -8.14932740    0.00000000
                                      S - G
                                                     0      409.4437358        2.73342180    0.00000000
                                                     1      274.5419231       59.70243290    0.00000000
                                                     2      127.5658570      891.45895500    0.00000000
                                                     2       32.9036631      368.44676560    0.00000000
                                                     2        5.0593880      238.02630900    0.00000000
                                                     2        4.1506556     -107.05564540    0.00000000
                                      P - G
                                                     0      466.1728892        1.88785680    0.00000000
                                                     1      120.7888259       76.01386290    0.00000000
                                                     2       36.4118791      343.55111160    0.00000000
                                                     2        5.6985408      119.49117860    0.00000000
                                      D - G
                                                     0      249.5650763        2.93436780    0.00000000
                                                     1      126.6678585       59.33065710    0.00000000
                                                     2       63.1430586      452.44451940    0.00000000
                                                     2       17.9059470      210.47694790    0.00000000
                                                     2        4.2239373       58.62541120    0.00000000
                                      F - G
                                                     0      121.8158799        3.95342530    0.00000000
                                                     1       60.8757030       53.85551820    0.00000000
                                                     2       31.4767147      247.43051330    0.00000000
                                                     2        9.8811751      127.81879760    0.00000000
                                                     2        2.7319874       15.37720460    0.00000000
    2          7
                                   No pseudopotential on this center.
    3          8
                                   No pseudopotential on this center.
    4          8
                                   No pseudopotential on this center.
    5          7
                                   No pseudopotential on this center.
    6          8
                                   No pseudopotential on this center.
    7          8
                                   No pseudopotential on this center.
    8          7
                                   No pseudopotential on this center.
    9          8
                                   No pseudopotential on this center.
   10          8
                                   No pseudopotential on this center.
   11         35
                                   No pseudopotential on this center.
   12         35
                                   No pseudopotential on this center.
   13         35
                                   No pseudopotential on this center.
 ======================================================================================================
 There are   244 symmetry adapted basis functions of A   symmetry.
 Integral buffers will be    131072 words long.
 Raffenetti 2 integral format.
 Two-electron integral symmetry is turned on.
   244 basis functions,   508 primitive gaussians,   264 cartesian basis functions
    97 alpha electrons       97 beta electrons
       nuclear repulsion energy      2534.9671584168 Hartrees.
 NAtoms=   13 NActive=   13 NUniq=   13 SFac= 7.50D-01 NAtFMM=   80 NAOKFM=F Big=F
 ------------------------------------------------------------------------------
 Polarizable Continuum Model (PCM)
 =================================
 Model                : PCM.
 Atomic radii         : UFF (Universal Force Field).
 Polarization charges : Total charges.
 Charge compensation  : None.
 Solution method      : Matrix inversion.
 Cavity type          : Scaled VdW (van der Waals Surface) (Alpha=1.100).
 Cavity algorithm     : GePol (No added spheres)
                        Default sphere list used, NSphG=   13.
                        Lebedev-Laikov grids with approx.  5.0 points / Ang**2.
                        Smoothing algorithm: Karplus/York (Gamma=1.0000).
                        Polarization charges: spherical gaussians, with
                                              point-specific exponents (IZeta= 3).
                        Self-potential: point-specific (ISelfS= 7).
                        Self-field    : sphere-specific E.n sum rule (ISelfD= 2).
 1st derivatives      : Analytical E(r).r(x)/FMM algorithm (CHGder, D1EAlg=3).
                        Cavity 1st derivative terms included.
 Solvent              : Water, Eps=  78.355300 Eps(inf)=   1.777849
 ------------------------------------------------------------------------------
 Spheres list:
 ISph  on   Nord    Re0     Alpha      Xe            Ye            Ze
    1  Pt      1    1.377   1.100     -0.034453      0.150129      0.151754
    2   N      2    1.830   1.100     -1.118712     -0.108411      1.947274
    3   O      3    1.750   1.100     -2.320088      0.105602      1.942276
    4   O      4    1.750   1.100     -0.487320     -0.440133      2.934749
    5   N      5    1.830   1.100      1.469379      1.100065      1.292612
    6   O      6    1.750   1.100      1.079024      1.904059      2.130301
    7   O      7    1.750   1.100      2.641370      0.834825      1.100616
    8   N      8    1.830   1.100     -0.923503      2.065267     -0.119477
    9   O      9    1.750   1.100     -0.160635      3.007973     -0.267993
   10   O     10    1.750   1.100     -2.135993      2.160182     -0.114446
   11  Br     11    2.095   1.100      1.309844      0.510360     -2.050077
   12  Br     12    2.095   1.100     -1.935547     -1.038650     -1.173201
   13  Br     13    2.095   1.100      1.133312     -2.148526      0.495173
 ------------------------------------------------------------------------------
 One-electron integrals computed using PRISM.
   1 Symmetry operations used in ECPInt.
 ECPInt:  NShTT=    4851 NPrTT=   23253 LenC2=    4411 LenP2D=   14267.
 LDataN:  DoStor=T MaxTD1= 6 Len=  172
 NBasis=   244 RedAO= T  NBF=   244
 NBsUse=   244 1.00D-06 NBFU=   244
 Defaulting to unpruned grid for atomic number  78.
 Harris functional with IExCor=  402 diagonalized for initial guess.
 ExpMin= 2.90D-02 ExpMax= 1.13D+05 ExpMxC= 1.70D+04 IAcc=3 IRadAn=         0 AccDes= 0.00D+00
 HarFok:  IExCor=  402 AccDes= 0.00D+00 IRadAn=         0 IDoV= 1
 ScaDFX=  1.000000  1.000000  1.000000  1.000000
 Defaulting to unpruned grid for atomic number  78.
 Defaulting to unpruned grid for atomic number  78.
 Defaulting to unpruned grid for atomic number  78.
 Defaulting to unpruned grid for atomic number  78.
 Defaulting to unpruned grid for atomic number  78.
 Defaulting to unpruned grid for atomic number  78.
 Defaulting to unpruned grid for atomic number  78.
 Defaulting to unpruned grid for atomic number  78.
 Defaulting to unpruned grid for atomic number  78.
 Defaulting to unpruned grid for atomic number  78.
 Defaulting to unpruned grid for atomic number  78.
 Defaulting to unpruned grid for atomic number  78.
 Defaulting to unpruned grid for atomic number  78.
 Defaulting to unpruned grid for atomic number  78.
 Defaulting to unpruned grid for atomic number  78.
 Defaulting to unpruned grid for atomic number  78.
 Defaulting to unpruned grid for atomic number  78.
 Defaulting to unpruned grid for atomic number  78.
 Defaulting to unpruned grid for atomic number  78.
 Defaulting to unpruned grid for atomic number  78.
 Defaulting to unpruned grid for atomic number  78.
 Defaulting to unpruned grid for atomic number  78.
 Defaulting to unpruned grid for atomic number  78.
 Defaulting to unpruned grid for atomic number  78.
 FoFCou: FMM=F IPFlag=           0 FMFlag=      100000 FMFlg1=           0
         NFxFlg=           0 DoJE=T BraDBF=F KetDBF=T FulRan=T
         Omega=  0.000000  0.000000  1.000000  0.000000  0.000000 ICntrl=     500 IOpCl=  0
         NMat0=    1 NMatS0=    1 NMatT0=    0 NMatD0=    1 NMtDS0=    0 NMtDT0=    0
         I1Cent=           4 NGrid=           0.
 Petite list used in FoFCou.
 Initial guess orbital symmetries:
       Occupied  (A) (A) (A) (A) (A) (A) (A) (A) (A) (A) (A) (A)
                 (A) (A) (A) (A) (A) (A) (A) (A) (A) (A) (A) (A)
                 (A) (A) (A) (A) (A) (A) (A) (A) (A) (A) (A) (A)
                 (A) (A) (A) (A) (A) (A) (A) (A) (A) (A) (A) (A)
                 (A) (A) (A) (A) (A) (A) (A) (A) (A) (A) (A) (A)
                 (A) (A) (A) (A) (A) (A) (A) (A) (A) (A) (A) (A)
                 (A) (A) (A) (A) (A) (A) (A) (A) (A) (A) (A) (A)
                 (A) (A) (A) (A) (A) (A) (A) (A) (A) (A) (A) (A)
                 (A)
       Virtual   (A) (A) (A) (A) (A) (A) (A) (A) (A) (A) (A) (A)
                 (A) (A) (A) (A) (A) (A) (A) (A) (A) (A) (A) (A)
                 (A) (A) (A) (A) (A) (A) (A) (A) (A) (A) (A) (A)
                 (A) (A) (A) (A) (A) (A) (A) (A) (A) (A) (A) (A)
                 (A) (A) (A) (A) (A) (A) (A) (A) (A) (A) (A) (A)
                 (A) (A) (A) (A) (A) (A) (A) (A) (A) (A) (A) (A)
                 (A) (A) (A) (A) (A) (A) (A) (A) (A) (A) (A) (A)
                 (A) (A) (A) (A) (A) (A) (A) (A) (A) (A) (A) (A)
                 (A) (A) (A) (A) (A) (A) (A) (A) (A) (A) (A) (A)
                 (A) (A) (A) (A) (A) (A) (A) (A) (A) (A) (A) (A)
                 (A) (A) (A) (A) (A) (A) (A) (A) (A) (A) (A) (A)
                 (A) (A) (A) (A) (A) (A) (A) (A) (A) (A) (A) (A)
                 (A) (A) (A)
 The electronic state of the initial guess is 1-A.
 Requested convergence on RMS density matrix=1.00D-08 within 128 cycles.
 Requested convergence on MAX density matrix=1.00D-06.
 Requested convergence on             energy=1.00D-06.
 No special actions if energy rises.
 Keep R1 ints in memory in canonical form, NReq=621490523.
 Defaulting to unpruned grid for atomic number  78.
 Defaulting to unpruned grid for atomic number  78.
 Defaulting to unpruned grid for atomic number  78.
 Defaulting to unpruned grid for atomic number  78.
 Defaulting to unpruned grid for atomic number  78.
 Defaulting to unpruned grid for atomic number  78.
 Defaulting to unpruned grid for atomic number  78.
 Defaulting to unpruned grid for atomic number  78.
 Defaulting to unpruned grid for atomic number  78.
 Defaulting to unpruned grid for atomic number  78.
 Defaulting to unpruned grid for atomic number  78.
 Defaulting to unpruned grid for atomic number  78.
 Defaulting to unpruned grid for atomic number  78.
 Defaulting to unpruned grid for atomic number  78.
 Defaulting to unpruned grid for atomic number  78.
 Defaulting to unpruned grid for atomic number  78.
 Defaulting to unpruned grid for atomic number  78.
 Defaulting to unpruned grid for atomic number  78.
 Defaulting to unpruned grid for atomic number  78.
 Defaulting to unpruned grid for atomic number  78.
 Defaulting to unpruned grid for atomic number  78.
 Defaulting to unpruned grid for atomic number  78.
 Defaulting to unpruned grid for atomic number  78.
 Defaulting to unpruned grid for atomic number  78.
 EnCoef did   100 forward-backward iterations
 EnCoef did   100 forward-backward iterations
 EnCoef did   100 forward-backward iterations
 EnCoef did     3 forward-backward iterations
 EnCoef did     1 forward-backward iterations
 EnCoef did     1 forward-backward iterations
 Error on total polarization charges =  0.01089
 SCF Done:  E(RB3LYP) =  -8456.08809679     A.U. after   23 cycles
             Convg  =    0.4149D-08             -V/T =  2.0114

 **********************************************************************

            Population analysis using the SCF density.

 **********************************************************************

 Orbital symmetries:
       Occupied  (A) (A) (A) (A) (A) (A) (A) (A) (A) (A) (A) (A)
                 (A) (A) (A) (A) (A) (A) (A) (A) (A) (A) (A) (A)
                 (A) (A) (A) (A) (A) (A) (A) (A) (A) (A) (A) (A)
                 (A) (A) (A) (A) (A) (A) (A) (A) (A) (A) (A) (A)
                 (A) (A) (A) (A) (A) (A) (A) (A) (A) (A) (A) (A)
                 (A) (A) (A) (A) (A) (A) (A) (A) (A) (A) (A) (A)
                 (A) (A) (A) (A) (A) (A) (A) (A) (A) (A) (A) (A)
                 (A) (A) (A) (A) (A) (A) (A) (A) (A) (A) (A) (A)
                 (A)
       Virtual   (A) (A) (A) (A) (A) (A) (A) (A) (A) (A) (A) (A)
                 (A) (A) (A) (A) (A) (A) (A) (A) (A) (A) (A) (A)
                 (A) (A) (A) (A) (A) (A) (A) (A) (A) (A) (A) (A)
                 (A) (A) (A) (A) (A) (A) (A) (A) (A) (A) (A) (A)
                 (A) (A) (A) (A) (A) (A) (A) (A) (A) (A) (A) (A)
                 (A) (A) (A) (A) (A) (A) (A) (A) (A) (A) (A) (A)
                 (A) (A) (A) (A) (A) (A) (A) (A) (A) (A) (A) (A)
                 (A) (A) (A) (A) (A) (A) (A) (A) (A) (A) (A) (A)
                 (A) (A) (A) (A) (A) (A) (A) (A) (A) (A) (A) (A)
                 (A) (A) (A) (A) (A) (A) (A) (A) (A) (A) (A) (A)
                 (A) (A) (A) (A) (A) (A) (A) (A) (A) (A) (A) (A)
                 (A) (A) (A) (A) (A) (A) (A) (A) (A) (A) (A) (A)
                 (A) (A) (A)
 The electronic state is 1-A.
 Alpha  occ. eigenvalues -- -482.73668-482.73646-482.73554 -62.41784 -62.41761
 Alpha  occ. eigenvalues --  -62.41670 -56.24953 -56.24928 -56.24839 -56.24701
 Alpha  occ. eigenvalues --  -56.24700 -56.24680 -56.24679 -56.24591 -56.24583
 Alpha  occ. eigenvalues --  -19.16387 -19.16343 -19.16272 -19.16244 -19.16135
 Alpha  occ. eigenvalues --  -19.16083 -14.53334 -14.53257 -14.53211  -8.63492
 Alpha  occ. eigenvalues --   -8.63468  -8.63378  -6.46569  -6.46536  -6.46454
 Alpha  occ. eigenvalues --   -6.45683  -6.45679  -6.45663  -6.45661  -6.45582
 Alpha  occ. eigenvalues --   -6.45553  -4.01422  -2.58033  -2.58001  -2.57918
 Alpha  occ. eigenvalues --   -2.57788  -2.57786  -2.57760  -2.57760  -2.57684
 Alpha  occ. eigenvalues --   -2.57661  -2.57090  -2.57090  -2.57074  -2.57073
 Alpha  occ. eigenvalues --   -2.56977  -2.56976  -2.22554  -2.22477  -2.22434
 Alpha  occ. eigenvalues --   -1.20535  -1.20235  -1.20063  -1.03763  -1.03431
 Alpha  occ. eigenvalues --   -1.03279  -0.71773  -0.70574  -0.70487  -0.63893
 Alpha  occ. eigenvalues --   -0.63002  -0.62859  -0.54489  -0.53291  -0.52986
 Alpha  occ. eigenvalues --   -0.51846  -0.51840  -0.50452  -0.50121  -0.50093
 Alpha  occ. eigenvalues --   -0.50058  -0.36723  -0.35910  -0.35845  -0.35601
 Alpha  occ. eigenvalues --   -0.35505  -0.33482  -0.31658  -0.31606  -0.30418
 Alpha  occ. eigenvalues --   -0.29878  -0.28934  -0.28378  -0.26279  -0.26017
 Alpha  occ. eigenvalues --   -0.25991  -0.24773  -0.24733  -0.24685  -0.23888
 Alpha  occ. eigenvalues --   -0.23723  -0.23683
 Alpha virt. eigenvalues --   -0.10085  -0.09931  -0.05363  -0.05221  -0.04615
 Alpha virt. eigenvalues --    0.05307   0.06029   0.06525   0.08901   0.21330
 Alpha virt. eigenvalues --    0.22520   0.22653   0.27331   0.31022   0.31241
 Alpha virt. eigenvalues --    0.35360   0.36200   0.36594   0.39659   0.39671
 Alpha virt. eigenvalues --    0.41411   0.42158   0.44409   0.44669   0.45689
 Alpha virt. eigenvalues --    0.46011   0.55481   0.55887   0.55968   0.56812
 Alpha virt. eigenvalues --    0.57378   0.57466   0.57496   0.57744   0.59101
 Alpha virt. eigenvalues --    0.59392   0.61215   0.61445   0.61689   0.65168
 Alpha virt. eigenvalues --    0.65634   0.65965   0.69610   0.71021   0.72160
 Alpha virt. eigenvalues --    0.81221   0.82313   0.82683   0.84310   0.84438
 Alpha virt. eigenvalues --    0.86447   0.86603   0.87794   0.88409   0.89244
 Alpha virt. eigenvalues --    0.90914   0.91253   0.94667   0.95198   0.95443
 Alpha virt. eigenvalues --    0.96867   0.97619   0.98394   1.00068   1.00997
 Alpha virt. eigenvalues --    1.02927   1.04225   1.04467   1.04847   1.09329
 Alpha virt. eigenvalues --    1.10315   1.10598   1.11792   1.13786   1.16247
 Alpha virt. eigenvalues --    1.17120   1.18324   1.23000   1.25010   1.26094
 Alpha virt. eigenvalues --    1.35898   1.38562   1.39951   1.42282   1.43547
 Alpha virt. eigenvalues --    1.46537   1.80139   1.82826   1.82871   1.91129
 Alpha virt. eigenvalues --    1.93964   1.95916   1.98134   2.07428   2.12331
 Alpha virt. eigenvalues --    2.37123   2.38818   2.41111   2.41894   2.42729
 Alpha virt. eigenvalues --    2.43400   2.60587   2.61355   2.61519   2.62864
 Alpha virt. eigenvalues --    2.62907   2.63240   2.63965   2.64827   2.67319
 Alpha virt. eigenvalues --    2.70829   2.70897   2.71013   2.98888   3.00131
 Alpha virt. eigenvalues --    3.00717   3.04783   3.05275   3.05485   3.29065
 Alpha virt. eigenvalues --    3.29480   3.30132   3.32721   3.38661   3.38848
 Alpha virt. eigenvalues --    3.45681   3.45753   3.45829   3.45897   3.46785
 Alpha virt. eigenvalues --    3.46911   3.47530   3.54864   3.55051   3.57737
 Alpha virt. eigenvalues --    3.61295   3.62119   3.67080   3.70046   3.70414
 Alpha virt. eigenvalues --    3.72503   3.75269   3.76995   3.77519   3.79320
 Alpha virt. eigenvalues --    3.82157   9.16547
          Condensed to atoms (all electrons):
              1          2          3          4          5          6
     1  Pt  17.153075   0.134212  -0.027579  -0.031291   0.129598  -0.028646
     2  N    0.134212   6.210706   0.286847   0.269437  -0.013153  -0.000514
     3  O   -0.027579   0.286847   8.085585  -0.098419  -0.000017  -0.000055
     4  O   -0.031291   0.269437  -0.098419   8.114059   0.000223  -0.000449
     5  N    0.129598  -0.013153  -0.000017   0.000223   6.208475   0.256162
     6  O   -0.028646  -0.000514  -0.000055  -0.000449   0.256162   8.135337
     7  O   -0.022360  -0.000051   0.000000  -0.000089   0.294569  -0.096442
     8  N    0.139182  -0.005648  -0.003349  -0.000178  -0.013141  -0.000417
     9  O   -0.032484  -0.000204   0.000030   0.000005   0.000063  -0.000333
    10  O   -0.027289  -0.002915   0.004052   0.000019   0.000011  -0.000029
    11  Br   0.251805  -0.001775   0.000053   0.000060  -0.008448   0.000030
    12  Br   0.250888  -0.010267   0.000187   0.000014  -0.001773   0.000065
    13  Br   0.250061  -0.009744  -0.000038   0.000064  -0.009773   0.000007
              7          8          9         10         11         12
     1  Pt  -0.022360   0.139182  -0.032484  -0.027289   0.251805   0.250888
     2  N   -0.000051  -0.005648  -0.000204  -0.002915  -0.001775  -0.010267
     3  O    0.000000  -0.003349   0.000030   0.004052   0.000053   0.000187
     4  O   -0.000089  -0.000178   0.000005   0.000019   0.000060   0.000014
     5  N    0.294569  -0.013141   0.000063   0.000011  -0.008448  -0.001773
     6  O   -0.096442  -0.000417  -0.000333  -0.000029   0.000030   0.000065
     7  O    8.076265  -0.000054  -0.000119   0.000000   0.000328   0.000047
     8  N   -0.000054   6.194102   0.269694   0.290777  -0.010429  -0.008127
     9  O   -0.000119   0.269694   8.119591  -0.098179  -0.000026   0.000021
    10  O    0.000000   0.290777  -0.098179   8.076439  -0.000095   0.000155
    11  Br   0.000328  -0.010429  -0.000026  -0.000095  35.061538  -0.011828
    12  Br   0.000047  -0.008127   0.000021   0.000155  -0.011828  35.056147
    13  Br   0.000360  -0.001710   0.000063   0.000050  -0.013533  -0.013242
             13
     1  Pt   0.250061
     2  N   -0.009744
     3  O   -0.000038
     4  O    0.000064
     5  N   -0.009773
     6  O    0.000007
     7  O    0.000360
     8  N   -0.001710
     9  O    0.000063
    10  O    0.000050
    11  Br  -0.013533
    12  Br  -0.013242
    13  Br  35.058817
 Mulliken atomic charges:
              1
     1  Pt  -0.139173
     2  N    0.143068
     3  O   -0.247298
     4  O   -0.253456
     5  N    0.157204
     6  O   -0.264717
     7  O   -0.252454
     8  N    0.149297
     9  O   -0.258125
    10  O   -0.242994
    11  Br  -0.267682
    12  Br  -0.262288
    13  Br  -0.261383
 Sum of Mulliken atomic charges =  -2.00000
 Mulliken charges with hydrogens summed into heavy atoms:
              1
     1  Pt  -0.139173
     2  N    0.143068
     3  O   -0.247298
     4  O   -0.253456
     5  N    0.157204
     6  O   -0.264717
     7  O   -0.252454
     8  N    0.149297
     9  O   -0.258125
    10  O   -0.242994
    11  Br  -0.267682
    12  Br  -0.262288
    13  Br  -0.261383
 Sum of Mulliken charges with hydrogens summed into heavy atoms =  -2.00000
 Electronic spatial extent (au):  <R**2>=           4626.8412
 Charge=             -2.0000 electrons
 Dipole moment (field-independent basis, Debye):
    X=              0.0051    Y=             -0.9782    Z=             -0.9150  Tot=              1.3395
 Quadrupole moment (field-independent basis, Debye-Ang):
   XX=           -165.6752   YY=           -160.5435   ZZ=           -160.3743
   XY=              0.5308   XZ=             -0.0315   YZ=             -1.0828
 Traceless Quadrupole moment (field-independent basis, Debye-Ang):
   XX=             -3.4775   YY=              1.6542   ZZ=              1.8233
   XY=              0.5308   XZ=             -0.0315   YZ=             -1.0828
 Octapole moment (field-independent basis, Debye-Ang**2):
  XXX=             16.0534  YYY=            -60.1570  ZZZ=            -60.8135  XYY=              0.2895
  XXY=            -21.9540  XXZ=            -20.9237  XZZ=              0.3445  YZZ=            -14.5369
  YYZ=            -15.5077  XYZ=             -0.2654
 Hexadecapole moment (field-independent basis, Debye-Ang**3):
 XXXX=          -1840.4354 YYYY=          -1781.4049 ZZZZ=          -1756.8816 XXXY=             11.8430
 XXXZ=              2.1228 YYYX=             22.8431 YYYZ=            -14.6308 ZZZX=             22.2127
 ZZZY=            -18.0525 XXYY=           -587.9399 XXZZ=           -592.9043 YYZZ=           -563.0401
 XXYZ=            -17.0540 YYXZ=            -18.7257 ZZXY=            -20.6153
 N-N= 2.534967158417D+03 E-N=-2.527952564430D+04  KE= 8.361140993686D+03
   1 Symmetry operations used in ECPInt.
 ECPInt:  NShTT=    4851 NPrTT=   23253 LenC2=    4411 LenP2D=   14267.
 LDataN:  DoStor=T MaxTD1= 7 Len=  274
 D1PCM: PCM CHGder 1st derivatives, ID1Alg=3 FixD1E=F DoIter=F DoCFld=F I1PDM=0.
 Calling FoFJK, ICntrl=      2127 FMM=F ISym2X=0 I1Cent= 0 IOpClX= 0 NMat=1 NMatS=1 NMatT=0.
 Defaulting to unpruned grid for atomic number  78.
 Defaulting to unpruned grid for atomic number  78.
 Defaulting to unpruned grid for atomic number  78.
 Defaulting to unpruned grid for atomic number  78.
 Defaulting to unpruned grid for atomic number  78.
 Defaulting to unpruned grid for atomic number  78.
 Defaulting to unpruned grid for atomic number  78.
 Defaulting to unpruned grid for atomic number  78.
 Defaulting to unpruned grid for atomic number  78.
 Defaulting to unpruned grid for atomic number  78.
 Defaulting to unpruned grid for atomic number  78.
 Defaulting to unpruned grid for atomic number  78.
 Defaulting to unpruned grid for atomic number  78.
 Defaulting to unpruned grid for atomic number  78.
 Defaulting to unpruned grid for atomic number  78.
 Defaulting to unpruned grid for atomic number  78.
 Defaulting to unpruned grid for atomic number  78.
 Defaulting to unpruned grid for atomic number  78.
 Defaulting to unpruned grid for atomic number  78.
 Defaulting to unpruned grid for atomic number  78.
 Defaulting to unpruned grid for atomic number  78.
 Defaulting to unpruned grid for atomic number  78.
 Defaulting to unpruned grid for atomic number  78.
 Defaulting to unpruned grid for atomic number  78.
 ***** Axes restored to original set *****
 -------------------------------------------------------------------
 Center     Atomic                   Forces (Hartrees/Bohr)
 Number     Number              X              Y              Z
 -------------------------------------------------------------------
      1       78           0.000672296   -0.000666470    0.000302992
      2        7          -0.007908507   -0.001103693   -0.003131994
      3        8           0.010025931    0.001938660   -0.000713958
      4        8          -0.001752511   -0.000483048    0.002549804
      5        7           0.004763423   -0.004338167   -0.003951868
      6        8           0.002519410    0.005788562    0.005854433
      7        8          -0.007494499   -0.001672446   -0.001024697
      8        7          -0.001814576   -0.003535439    0.001551799
      9        8          -0.004569635    0.005393168   -0.000973217
     10        8           0.006125264   -0.000156106    0.000018346
     11       35          -0.000491573   -0.000956433   -0.000074590
     12       35           0.001039377   -0.000669903    0.000689075
     13       35          -0.001114401    0.000461314   -0.001096123
 -------------------------------------------------------------------
 Cartesian Forces:  Max     0.010025931 RMS     0.003555080

 GradGradGradGradGradGradGradGradGradGradGradGradGradGradGradGradGradGrad
 Berny optimization.
 Internal  Forces:  Max     0.010199880 RMS     0.002579098
 Search for a local minimum.
 Step number   1 out of a maximum of   67
 All quantities printed in internal units (Hartrees-Bohrs-Radians)
 Mixed Optimization -- RFO/linear search
 Second derivative matrix not updated -- first step.
     Eigenvalues ---    0.00230   0.00230   0.00230   0.00230   0.00230
     Eigenvalues ---    0.00232   0.12196   0.12256   0.12516   0.12528
     Eigenvalues ---    0.12548   0.12628   0.12654   0.12951   0.13023
     Eigenvalues ---    0.14181   0.14733   0.14740   0.16287   0.16796
     Eigenvalues ---    0.17186   0.25000   0.25000   0.25000   0.25000
     Eigenvalues ---    0.25000   0.25000   0.93223   0.94604   0.95251
     Eigenvalues ---    0.96224   0.96782   0.970831000.000001000.00000
     Eigenvalues --- 1000.000001000.000001000.000001000.000001000.00000
     Eigenvalues --- 1000.000001000.000001000.000001000.000001000.00000
     Eigenvalues --- 1000.000001000.000001000.000001000.000001000.00000
     Eigenvalues --- 1000.000001000.000001000.000001000.000001000.00000
     Eigenvalues --- 1000.000001000.00000
 RFO step:  Lambda=-7.23047939D-04 EMin= 2.30000000D-03
 Linear search not attempted -- first point.
 Iteration  1 RMS(Cart)=  0.02271971 RMS(Int)=  0.00049827
 Iteration  2 RMS(Cart)=  0.00049963 RMS(Int)=  0.00013678
 Iteration  3 RMS(Cart)=  0.00000021 RMS(Int)=  0.00013678
 Variable       Old X    -DE/DX   Delta X   Delta X   Delta X     New X
                                 (Linear)    (Quad)   (Total)
    R1        3.99370   0.00097   0.00000   0.00653   0.00653   4.00023
    R2        3.99329  -0.00054   0.00000  -0.00367  -0.00367   3.98963
    R3        4.02282  -0.00134   0.00000  -0.00939  -0.00939   4.01344
    R4        4.92235  -0.00019   0.00000  -0.00149  -0.00149   4.92086
    R5        4.92159  -0.00071   0.00000  -0.00561  -0.00561   4.91597
    R6        4.91526   0.00005   0.00000   0.00038   0.00038   4.91564
    R7        2.30603  -0.01020   0.00000  -0.01070  -0.01070   2.29533
    R8        2.30190  -0.00312   0.00000  -0.00324  -0.00324   2.29867
    R9        2.31482  -0.00863   0.00000  -0.00925  -0.00925   2.30558
   R10        2.29956  -0.00773   0.00000  -0.00798  -0.00798   2.29157
   R11        2.30881  -0.00711   0.00000  -0.00751  -0.00751   2.30130
   R12        2.29830  -0.00612   0.00000  -0.00630  -0.00630   2.29201
    A1        1.53221  -0.00003   0.00000   0.00079   0.00079   1.53300
    A2        1.57484   0.00046   0.00000   0.00084   0.00085   1.57569
    A3        1.57268   0.00214   0.00000   0.01574   0.01574   1.58842
    A4        1.58085  -0.00206   0.00000  -0.01374  -0.01373   1.56712
    A5        1.53236   0.00049   0.00000   0.00357   0.00358   1.53595
    A6        1.59772  -0.00104   0.00000  -0.00917  -0.00917   1.58855
    A7        1.57728   0.00089   0.00000   0.00760   0.00764   1.58493
    A8        1.55421  -0.00090   0.00000  -0.00402  -0.00399   1.55022
    A9        1.61178  -0.00113   0.00000  -0.00889  -0.00887   1.60291
   A10        1.58061  -0.00107   0.00000  -0.00742  -0.00743   1.57317
   A11        1.57292   0.00249   0.00000   0.01679   0.01683   1.58975
   A12        1.56230  -0.00034   0.00000  -0.00299  -0.00286   1.55944
   A13        2.07163   0.00096   0.00000   0.00428   0.00374   2.07537
   A14        2.04443  -0.00035   0.00000  -0.00094  -0.00147   2.04296
   A15        2.16685  -0.00061   0.00000  -0.00199  -0.00252   2.16432
   A16        2.02358  -0.00018   0.00000  -0.00073  -0.00075   2.02283
   A17        2.09698  -0.00013   0.00000  -0.00052  -0.00054   2.09644
   A18        2.16262   0.00031   0.00000   0.00122   0.00120   2.16382
   A19        2.03630  -0.00032   0.00000  -0.00132  -0.00156   2.03474
   A20        2.07835   0.00092   0.00000   0.00362   0.00338   2.08173
   A21        2.16853  -0.00060   0.00000  -0.00244  -0.00268   2.16585
    D1        2.39354  -0.00030   0.00000  -0.00925  -0.00924   2.38430
    D2       -0.72345  -0.00048   0.00000  -0.06757  -0.06755  -0.79101
    D3        0.86136  -0.00078   0.00000  -0.01279  -0.01280   0.84856
    D4       -2.25563  -0.00096   0.00000  -0.07111  -0.07111  -2.32674
    D5       -0.75042   0.00034   0.00000  -0.00396  -0.00402  -0.75444
    D6        2.41577   0.00016   0.00000  -0.06228  -0.06233   2.35344
    D7       -2.31274   0.00066   0.00000  -0.00111  -0.00107  -2.31381
    D8        0.85345   0.00049   0.00000  -0.05942  -0.05938   0.79407
    D9       -0.76642  -0.00045   0.00000   0.02319   0.02319  -0.74323
   D10        2.37250  -0.00049   0.00000   0.01149   0.01149   2.38399
   D11        0.80991  -0.00001   0.00000   0.02387   0.02388   0.83378
   D12       -2.33436  -0.00005   0.00000   0.01216   0.01217  -2.32219
   D13        2.36307  -0.00086   0.00000   0.02030   0.02030   2.38337
   D14       -0.78120  -0.00090   0.00000   0.00859   0.00860  -0.77260
   D15       -2.34703   0.00165   0.00000   0.03724   0.03722  -2.30981
   D16        0.79190   0.00161   0.00000   0.02553   0.02551   0.81741
   D17        2.18667  -0.00088   0.00000  -0.02697  -0.02697   2.15970
   D18       -0.95132  -0.00076   0.00000   0.01230   0.01230  -0.93903
   D19        0.65464  -0.00083   0.00000  -0.02775  -0.02775   0.62689
   D20       -2.48335  -0.00071   0.00000   0.01152   0.01151  -2.47184
   D21       -0.94374   0.00018   0.00000  -0.01867  -0.01865  -0.96239
   D22        2.20146   0.00030   0.00000   0.02060   0.02061   2.22207
   D23       -2.52367   0.00127   0.00000  -0.01122  -0.01123  -2.53490
   D24        0.62152   0.00139   0.00000   0.02805   0.02803   0.64955
         Item               Value     Threshold  Converged?
 Maximum Force            0.010200     0.000450     NO 
 RMS     Force            0.002579     0.000300     NO 
 Maximum Displacement     0.092929     0.001800     NO 
 RMS     Displacement     0.022671     0.001200     NO 
 Predicted change in Energy=-3.709689D-04
 GradGradGradGradGradGradGradGradGradGradGradGradGradGradGradGradGradGrad

                          Input orientation:                          
 ---------------------------------------------------------------------
 Center     Atomic      Atomic             Coordinates (Angstroms)
 Number     Number       Type             X           Y           Z
 ---------------------------------------------------------------------
      1         78           0       -0.033049   -0.152786   -0.153644
      2          7           0       -1.114305    0.095355   -1.956499
      3          8           0       -2.308827   -0.124755   -1.959848
      4          8           0       -0.492408    0.489310   -2.924837
      5          7           0        1.472159   -1.111162   -1.281964
      6          8           0        1.083378   -1.898561   -2.128955
      7          8           0        2.640103   -0.854930   -1.080047
      8          7           0       -0.927428   -2.057690    0.132768
      9          8           0       -0.169191   -3.001907    0.261451
     10          8           0       -2.136327   -2.154112    0.114316
     11         35           0        1.317313   -0.516256    2.043003
     12         35           0       -1.918944    1.028387    1.193809
     13         35           0        1.104190    2.156368   -0.529113
 ---------------------------------------------------------------------
                    Distance matrix (angstroms):
                    1          2          3          4          5
     1  Pt   0.000000
     2  N    2.116831   0.000000
     3  O    2.905568   1.214637   0.000000
     4  O    2.881459   1.216401   2.146545   0.000000
     5  N    2.111219   2.932657   3.965903   3.019945   0.000000
     6  O    2.862865   2.972415   3.831715   2.969589   1.220058
     7  O    2.914957   3.970742   5.079283   3.875933   1.212649
     8  N    2.123819   3.005922   3.165998   4.003173   2.942007
     9  O    2.882418   3.924994   4.217845   4.737668   2.941272
    10  O    2.915628   3.223803   2.906924   4.350471   4.007308
    11  Br   2.604006   4.720471   5.415254   5.381977   3.381316
    12  Br   2.601422   3.382667   3.380429   4.391907   4.712399
    13  Br   2.601246   3.347675   4.347322   3.326815   3.373268
                    6          7          8          9         10
     6  O    0.000000
     7  O    2.147735   0.000000
     8  N    3.030521   3.955355   0.000000
     9  O    2.915535   3.781700   1.217797   0.000000
    10  O    3.932439   5.092019   1.212878   2.147098   0.000000
    11  Br   4.401219   3.408506   3.326241   3.400306   4.281359
    12  Br   5.349928   5.431594   3.410687   4.491569   3.367620
    13  Br   4.359172   3.424978   4.724812   5.371619   5.430948
                   11         12         13
    11  Br   0.000000
    12  Br   3.685161   0.000000
    13  Br   3.715390   3.657887   0.000000
 Stoichiometry    Br3N3O6Pt(2-)
 Framework group  C1[X(Br3N3O6Pt)]
 Deg. of freedom    33
 Full point group                 C1      NOp   1
 Largest Abelian subgroup         C1      NOp   1
 Largest concise Abelian subgroup C1      NOp   1
                         Standard orientation:                         
 ---------------------------------------------------------------------
 Center     Atomic      Atomic             Coordinates (Angstroms)
 Number     Number       Type             X           Y           Z
 ---------------------------------------------------------------------
      1         78           0        0.016416   -0.054554    0.208487
      2          7           0        1.071239    1.014391    1.700359
      3          8           0        2.242568    0.755479    1.890872
      4          8           0        0.461704    1.884431    2.292920
      5          7           0       -1.590713   -0.209204    1.568806
      6          8           0       -1.289990   -0.474976    2.720966
      7          8           0       -2.727770   -0.022384    1.191026
      8          7           0        0.753865   -1.888144    0.986126
      9          8           0       -0.077866   -2.717917    1.306640
     10          8           0        1.949566   -2.034144    1.127747
     11         35           0       -1.306760   -1.407420   -1.580313
     12         35           0        2.026772    0.156256   -1.429018
     13         35           0       -0.931065    2.185793   -0.713253
 ---------------------------------------------------------------------
 Rotational constants (GHZ):      0.3010122      0.2970754      0.2917246
 Basis read from rwf:  (5D, 7F)
 Pseudo-potential data read from rwf file.
 There are   244 symmetry adapted basis functions of A   symmetry.
 Integral buffers will be    131072 words long.
 Raffenetti 2 integral format.
 Two-electron integral symmetry is turned on.
   244 basis functions,   508 primitive gaussians,   264 cartesian basis functions
    97 alpha electrons       97 beta electrons
       nuclear repulsion energy      2537.0526310409 Hartrees.
 NAtoms=   13 NActive=   13 NUniq=   13 SFac= 7.50D-01 NAtFMM=   80 NAOKFM=F Big=F
 ------------------------------------------------------------------------------
 Polarizable Continuum Model (PCM)
 =================================
 Model                : PCM.
 Atomic radii         : UFF (Universal Force Field).
 Polarization charges : Total charges.
 Charge compensation  : None.
 Solution method      : Matrix inversion.
 Cavity type          : Scaled VdW (van der Waals Surface) (Alpha=1.100).
 Cavity algorithm     : GePol (No added spheres)
                        Default sphere list used, NSphG=   13.
                        Lebedev-Laikov grids with approx.  5.0 points / Ang**2.
                        Smoothing algorithm: Karplus/York (Gamma=1.0000).
                        Polarization charges: spherical gaussians, with
                                              point-specific exponents (IZeta= 3).
                        Self-potential: point-specific (ISelfS= 7).
                        Self-field    : sphere-specific E.n sum rule (ISelfD= 2).
 1st derivatives      : Analytical E(r).r(x)/FMM algorithm (CHGder, D1EAlg=3).
                        Cavity 1st derivative terms included.
 Solvent              : Water, Eps=  78.355300 Eps(inf)=   1.777849
 ------------------------------------------------------------------------------
 Spheres list:
 ISph  on   Nord    Re0     Alpha      Xe            Ye            Ze
    1  Pt      1    1.377   1.100      0.016416     -0.054554      0.208487
    2   N      2    1.830   1.100      1.071239      1.014391      1.700359
    3   O      3    1.750   1.100      2.242568      0.755479      1.890872
    4   O      4    1.750   1.100      0.461704      1.884431      2.292920
    5   N      5    1.830   1.100     -1.590713     -0.209204      1.568806
    6   O      6    1.750   1.100     -1.289990     -0.474976      2.720966
    7   O      7    1.750   1.100     -2.727770     -0.022384      1.191026
    8   N      8    1.830   1.100      0.753865     -1.888144      0.986126
    9   O      9    1.750   1.100     -0.077866     -2.717917      1.306640
   10   O     10    1.750   1.100      1.949566     -2.034144      1.127747
   11  Br     11    2.095   1.100     -1.306760     -1.407420     -1.580313
   12  Br     12    2.095   1.100      2.026772      0.156256     -1.429018
   13  Br     13    2.095   1.100     -0.931065      2.185793     -0.713253
 ------------------------------------------------------------------------------
 One-electron integrals computed using PRISM.
   1 Symmetry operations used in ECPInt.
 ECPInt:  NShTT=    4851 NPrTT=   23253 LenC2=    4411 LenP2D=   14275.
 LDataN:  DoStor=T MaxTD1= 6 Len=  172
 NBasis=   244 RedAO= T  NBF=   244
 NBsUse=   244 1.00D-06 NBFU=   244
 Defaulting to unpruned grid for atomic number  78.
 Initial guess read from the read-write file.
 B after Tr=     0.000000    0.000000    0.000000
         Rot=    1.000000    0.000000    0.000000    0.000000 Ang=   0.00 deg.
 Initial guess orbital symmetries:
       Occupied  (A) (A) (A) (A) (A) (A) (A) (A) (A) (A) (A) (A)
                 (A) (A) (A) (A) (A) (A) (A) (A) (A) (A) (A) (A)
                 (A) (A) (A) (A) (A) (A) (A) (A) (A) (A) (A) (A)
                 (A) (A) (A) (A) (A) (A) (A) (A) (A) (A) (A) (A)
                 (A) (A) (A) (A) (A) (A) (A) (A) (A) (A) (A) (A)
                 (A) (A) (A) (A) (A) (A) (A) (A) (A) (A) (A) (A)
                 (A) (A) (A) (A) (A) (A) (A) (A) (A) (A) (A) (A)
                 (A) (A) (A) (A) (A) (A) (A) (A) (A) (A) (A) (A)
                 (A)
       Virtual   (A) (A) (A) (A) (A) (A) (A) (A) (A) (A) (A) (A)
                 (A) (A) (A) (A) (A) (A) (A) (A) (A) (A) (A) (A)
                 (A) (A) (A) (A) (A) (A) (A) (A) (A) (A) (A) (A)
                 (A) (A) (A) (A) (A) (A) (A) (A) (A) (A) (A) (A)
                 (A) (A) (A) (A) (A) (A) (A) (A) (A) (A) (A) (A)
                 (A) (A) (A) (A) (A) (A) (A) (A) (A) (A) (A) (A)
                 (A) (A) (A) (A) (A) (A) (A) (A) (A) (A) (A) (A)
                 (A) (A) (A) (A) (A) (A) (A) (A) (A) (A) (A) (A)
                 (A) (A) (A) (A) (A) (A) (A) (A) (A) (A) (A) (A)
                 (A) (A) (A) (A) (A) (A) (A) (A) (A) (A) (A) (A)
                 (A) (A) (A) (A) (A) (A) (A) (A) (A) (A) (A) (A)
                 (A) (A) (A) (A) (A) (A) (A) (A) (A) (A) (A) (A)
                 (A) (A) (A)
 Harris functional with IExCor=  402 diagonalized for initial guess.
 ExpMin= 2.90D-02 ExpMax= 1.13D+05 ExpMxC= 1.70D+04 IAcc=3 IRadAn=         0 AccDes= 0.00D+00
 HarFok:  IExCor=  402 AccDes= 0.00D+00 IRadAn=         0 IDoV= 1
 ScaDFX=  1.000000  1.000000  1.000000  1.000000
 Defaulting to unpruned grid for atomic number  78.
 Defaulting to unpruned grid for atomic number  78.
 Defaulting to unpruned grid for atomic number  78.
 Defaulting to unpruned grid for atomic number  78.
 Defaulting to unpruned grid for atomic number  78.
 Defaulting to unpruned grid for atomic number  78.
 Defaulting to unpruned grid for atomic number  78.
 Defaulting to unpruned grid for atomic number  78.
 Defaulting to unpruned grid for atomic number  78.
 Defaulting to unpruned grid for atomic number  78.
 Defaulting to unpruned grid for atomic number  78.
 Defaulting to unpruned grid for atomic number  78.
 Defaulting to unpruned grid for atomic number  78.
 Defaulting to unpruned grid for atomic number  78.
 Defaulting to unpruned grid for atomic number  78.
 Defaulting to unpruned grid for atomic number  78.
 Defaulting to unpruned grid for atomic number  78.
 Defaulting to unpruned grid for atomic number  78.
 Defaulting to unpruned grid for atomic number  78.
 Defaulting to unpruned grid for atomic number  78.
 Defaulting to unpruned grid for atomic number  78.
 Defaulting to unpruned grid for atomic number  78.
 Defaulting to unpruned grid for atomic number  78.
 Defaulting to unpruned grid for atomic number  78.
 FoFCou: FMM=F IPFlag=           0 FMFlag=      100000 FMFlg1=           0
         NFxFlg=           0 DoJE=T BraDBF=F KetDBF=T FulRan=T
         Omega=  0.000000  0.000000  1.000000  0.000000  0.000000 ICntrl=     500 IOpCl=  0
         NMat0=    1 NMatS0=    1 NMatT0=    0 NMatD0=    1 NMtDS0=    0 NMtDT0=    0
         I1Cent=           4 NGrid=           0.
 Petite list used in FoFCou.
 Requested convergence on RMS density matrix=1.00D-08 within 128 cycles.
 Requested convergence on MAX density matrix=1.00D-06.
 Requested convergence on             energy=1.00D-06.
 No special actions if energy rises.
 Keep R1 ints in memory in canonical form, NReq=621490523.
 Defaulting to unpruned grid for atomic number  78.
 Defaulting to unpruned grid for atomic number  78.
 Defaulting to unpruned grid for atomic number  78.
 Defaulting to unpruned grid for atomic number  78.
 Defaulting to unpruned grid for atomic number  78.
 Defaulting to unpruned grid for atomic number  78.
 Defaulting to unpruned grid for atomic number  78.
 Defaulting to unpruned grid for atomic number  78.
 Defaulting to unpruned grid for atomic number  78.
 Defaulting to unpruned grid for atomic number  78.
 Defaulting to unpruned grid for atomic number  78.
 Defaulting to unpruned grid for atomic number  78.
 Defaulting to unpruned grid for atomic number  78.
 Defaulting to unpruned grid for atomic number  78.
 Defaulting to unpruned grid for atomic number  78.
 Defaulting to unpruned grid for atomic number  78.
 Defaulting to unpruned grid for atomic number  78.
 Defaulting to unpruned grid for atomic number  78.
 Defaulting to unpruned grid for atomic number  78.
 Defaulting to unpruned grid for atomic number  78.
 Defaulting to unpruned grid for atomic number  78.
 Defaulting to unpruned grid for atomic number  78.
 Defaulting to unpruned grid for atomic number  78.
 Defaulting to unpruned grid for atomic number  78.
 Error on total polarization charges =  0.01092
 SCF Done:  E(RB3LYP) =  -8456.08838442     A.U. after   19 cycles
             Convg  =    0.5800D-08             -V/T =  2.0113
   1 Symmetry operations used in ECPInt.
 ECPInt:  NShTT=    4851 NPrTT=   23253 LenC2=    4411 LenP2D=   14275.
 LDataN:  DoStor=T MaxTD1= 7 Len=  274
 D1PCM: PCM CHGder 1st derivatives, ID1Alg=3 FixD1E=F DoIter=F DoCFld=F I1PDM=0.
 Calling FoFJK, ICntrl=      2127 FMM=F ISym2X=0 I1Cent= 0 IOpClX= 0 NMat=1 NMatS=1 NMatT=0.
 Defaulting to unpruned grid for atomic number  78.
 Defaulting to unpruned grid for atomic number  78.
 Defaulting to unpruned grid for atomic number  78.
 Defaulting to unpruned grid for atomic number  78.
 Defaulting to unpruned grid for atomic number  78.
 Defaulting to unpruned grid for atomic number  78.
 Defaulting to unpruned grid for atomic number  78.
 Defaulting to unpruned grid for atomic number  78.
 Defaulting to unpruned grid for atomic number  78.
 Defaulting to unpruned grid for atomic number  78.
 Defaulting to unpruned grid for atomic number  78.
 Defaulting to unpruned grid for atomic number  78.
 Defaulting to unpruned grid for atomic number  78.
 Defaulting to unpruned grid for atomic number  78.
 Defaulting to unpruned grid for atomic number  78.
 Defaulting to unpruned grid for atomic number  78.
 Defaulting to unpruned grid for atomic number  78.
 Defaulting to unpruned grid for atomic number  78.
 Defaulting to unpruned grid for atomic number  78.
 Defaulting to unpruned grid for atomic number  78.
 Defaulting to unpruned grid for atomic number  78.
 Defaulting to unpruned grid for atomic number  78.
 Defaulting to unpruned grid for atomic number  78.
 Defaulting to unpruned grid for atomic number  78.
 ***** Axes restored to original set *****
 -------------------------------------------------------------------
 Center     Atomic                   Forces (Hartrees/Bohr)
 Number     Number              X              Y              Z
 -------------------------------------------------------------------
      1       78           0.000456235   -0.001597178    0.001399718
      2        7          -0.003802158    0.005568819   -0.000080302
      3        8           0.002278358   -0.001868091   -0.000156084
      4        8           0.001204586   -0.002548773   -0.000400361
      5        7           0.000951576    0.000058252   -0.002007643
      6        8          -0.000113370    0.000676825    0.001038587
      7        8          -0.000929854   -0.000309229    0.000477179
      8        7          -0.000217138   -0.001458635   -0.002995488
      9        8          -0.000011545    0.000792224    0.001313319
     10        8           0.000744370    0.000657920    0.001455014
     11       35          -0.000376922   -0.000331400    0.000337855
     12       35          -0.000288047   -0.000018103    0.000298258
     13       35           0.000103910    0.000377369   -0.000680052
 -------------------------------------------------------------------
 Cartesian Forces:  Max     0.005568819 RMS     0.001539571

 GradGradGradGradGradGradGradGradGradGradGradGradGradGradGradGradGradGrad
 Berny optimization.
 Using GEDIIS/GDIIS optimizer.
 Internal  Forces:  Max     0.001907434 RMS     0.000756735
 Search for a local minimum.
 Step number   2 out of a maximum of   67
 All quantities printed in internal units (Hartrees-Bohrs-Radians)
 Mixed Optimization -- En-DIIS/RFO-DIIS
 Update second derivatives using D2CorX and points    1    2
 DE= -2.88D-04 DEPred=-3.71D-04 R= 7.75D-01
 SS=  1.41D+00  RLast= 1.62D-01 DXNew= 5.0454D-01 4.8653D-01
 Trust test= 7.75D-01 RLast= 1.62D-01 DXMaxT set to 4.87D-01
 Use linear search instead of GDIIS.
     Eigenvalues ---    0.00183   0.00230   0.00230   0.00231   0.00236
     Eigenvalues ---    0.00748   0.10224   0.12231   0.12464   0.12517
     Eigenvalues ---    0.12521   0.12604   0.12674   0.12915   0.13149
     Eigenvalues ---    0.13992   0.14620   0.14775   0.15313   0.16790
     Eigenvalues ---    0.17046   0.24778   0.25000   0.25000   0.25000
     Eigenvalues ---    0.25000   0.25458   0.73154   0.93732   0.94861
     Eigenvalues ---    0.96216   0.96395   0.969911000.000001000.00000
     Eigenvalues --- 1000.000001000.000001000.000001000.000001000.00000
     Eigenvalues --- 1000.000001000.000001000.000001000.000001000.00000
     Eigenvalues --- 1000.000001000.000001000.000001000.000001000.00000
     Eigenvalues --- 1000.000001000.000001000.000001000.000001000.00000
     Eigenvalues --- 1000.000001000.00000
 RFO step:  Lambda=-2.09213826D-03 EMin= 1.82818903D-03
 Quartic linear search produced a step of -0.22271.
 Maximum step size (   0.487) exceeded in Quadratic search.
    -- Step size scaled by   0.873
 Iteration  1 RMS(Cart)=  0.07206908 RMS(Int)=  0.00525770
 Iteration  2 RMS(Cart)=  0.00470376 RMS(Int)=  0.00247209
 Iteration  3 RMS(Cart)=  0.00001287 RMS(Int)=  0.00247206
 Iteration  4 RMS(Cart)=  0.00000001 RMS(Int)=  0.00247206
 Variable       Old X    -DE/DX   Delta X   Delta X   Delta X     New X
                                 (Linear)    (Quad)   (Total)
    R1        4.00023   0.00079  -0.00145   0.02201   0.02056   4.02079
    R2        3.98963   0.00002   0.00082  -0.01023  -0.00941   3.98022
    R3        4.01344  -0.00021   0.00209  -0.02737  -0.02527   3.98816
    R4        4.92086   0.00015   0.00033  -0.00337  -0.00304   4.91782
    R5        4.91597   0.00035   0.00125  -0.01386  -0.01261   4.90336
    R6        4.91564   0.00047  -0.00009   0.00359   0.00350   4.91915
    R7        2.29533  -0.00191   0.00238  -0.03157  -0.02918   2.26615
    R8        2.29867   0.00010   0.00072  -0.00906  -0.00834   2.29033
    R9        2.30558  -0.00111   0.00206  -0.02690  -0.02484   2.28073
   R10        2.29157  -0.00089   0.00178  -0.02315  -0.02138   2.27020
   R11        2.30130  -0.00048   0.00167  -0.02153  -0.01986   2.28144
   R12        2.29201  -0.00081   0.00140  -0.01833  -0.01693   2.27508
    A1        1.53300  -0.00076  -0.00018  -0.00128  -0.00146   1.53154
    A2        1.57569   0.00048  -0.00019   0.00423   0.00411   1.57980
    A3        1.58842   0.00042  -0.00351   0.04580   0.04230   1.63072
    A4        1.56712  -0.00055   0.00306  -0.04047  -0.03728   1.52983
    A5        1.53595   0.00003  -0.00080   0.00994   0.00924   1.54519
    A6        1.58855   0.00058   0.00204  -0.02315  -0.02107   1.56748
    A7        1.58493  -0.00044  -0.00170   0.01964   0.01813   1.60306
    A8        1.55022  -0.00089   0.00089  -0.01514  -0.01408   1.53614
    A9        1.60291  -0.00005   0.00197  -0.02465  -0.02251   1.58040
   A10        1.57317  -0.00025   0.00166  -0.02162  -0.02011   1.55306
   A11        1.58975   0.00095  -0.00375   0.05148   0.04796   1.63772
   A12        1.55944   0.00046   0.00064  -0.00575  -0.00424   1.55520
   A13        2.07537  -0.00002  -0.00083   0.01323   0.00220   2.07758
   A14        2.04296  -0.00077   0.00033  -0.00348  -0.01337   2.02959
   A15        2.16432   0.00087   0.00056  -0.00196  -0.01189   2.15243
   A16        2.02283  -0.00052   0.00017  -0.00333  -0.00326   2.01957
   A17        2.09644  -0.00016   0.00012  -0.00178  -0.00176   2.09468
   A18        2.16382   0.00068  -0.00027   0.00542   0.00506   2.16888
   A19        2.03474  -0.00022   0.00035  -0.00248  -0.00507   2.02966
   A20        2.08173  -0.00027  -0.00075   0.01127   0.00758   2.08931
   A21        2.16585   0.00054   0.00060  -0.00355  -0.00591   2.15995
    D1        2.38430  -0.00098   0.00206  -0.19072  -0.18806   2.19624
    D2       -0.79101   0.00147   0.01504   0.05494   0.06949  -0.72152
    D3        0.84856  -0.00099   0.00285  -0.20050  -0.19713   0.65143
    D4       -2.32674   0.00146   0.01584   0.04516   0.06042  -2.26633
    D5       -0.75444  -0.00095   0.00089  -0.17617  -0.17509  -0.92952
    D6        2.35344   0.00150   0.01388   0.06948   0.08246   2.43590
    D7       -2.31381  -0.00140   0.00024  -0.16953  -0.16841  -2.48222
    D8        0.79407   0.00105   0.01322   0.07613   0.08914   0.88321
    D9       -0.74323  -0.00023  -0.00516   0.04101   0.03584  -0.70739
   D10        2.38399   0.00009  -0.00256   0.06376   0.06119   2.44518
   D11        0.83378   0.00027  -0.00532   0.04491   0.03964   0.87343
   D12       -2.32219   0.00059  -0.00271   0.06766   0.06500  -2.25719
   D13        2.38337  -0.00064  -0.00452   0.03076   0.02627   2.40964
   D14       -0.77260  -0.00032  -0.00191   0.05351   0.05162  -0.72098
   D15       -2.30981   0.00031  -0.00829   0.08227   0.07391  -2.23590
   D16        0.81741   0.00063  -0.00568   0.10502   0.09926   0.91667
   D17        2.15970   0.00034   0.00601   0.03930   0.04526   2.20495
   D18       -0.93903  -0.00109  -0.00274  -0.09032  -0.09298  -1.03201
   D19        0.62689   0.00112   0.00618   0.04066   0.04676   0.67366
   D20       -2.47184  -0.00031  -0.00256  -0.08895  -0.09147  -2.56330
   D21       -0.96239   0.00051   0.00415   0.06351   0.06769  -0.89471
   D22        2.22207  -0.00092  -0.00459  -0.06611  -0.07054   2.15152
   D23       -2.53490   0.00078   0.00250   0.08513   0.08748  -2.44742
   D24        0.64955  -0.00065  -0.00624  -0.04449  -0.05075   0.59880
         Item               Value     Threshold  Converged?
 Maximum Force            0.001907     0.000450     NO 
 RMS     Force            0.000757     0.000300     NO 
 Maximum Displacement     0.239204     0.001800     NO 
 RMS     Displacement     0.072459     0.001200     NO 
 Predicted change in Energy=-1.327084D-03
 GradGradGradGradGradGradGradGradGradGradGradGradGradGradGradGradGradGrad

                          Input orientation:                          
 ---------------------------------------------------------------------
 Center     Atomic      Atomic             Coordinates (Angstroms)
 Number     Number       Type             X           Y           Z
 ---------------------------------------------------------------------
      1         78           0       -0.034508   -0.142169   -0.157751
      2          7           0       -1.108716    0.138466   -1.972819
      3          8           0       -2.240451   -0.251336   -2.045598
      4          8           0       -0.454265    0.467112   -2.938532
      5          7           0        1.465195   -1.094257   -1.289417
      6          8           0        1.074518   -1.828577   -2.163935
      7          8           0        2.623436   -0.898654   -1.037565
      8          7           0       -0.948501   -2.024865    0.114364
      9          8           0       -0.205041   -2.960258    0.287140
     10          8           0       -2.147667   -2.100641    0.189723
     11         35           0        1.329668   -0.591864    2.012334
     12         35           0       -1.871547    0.986262    1.286078
     13         35           0        1.034544    2.198040   -0.553581
 ---------------------------------------------------------------------
                    Distance matrix (angstroms):
                    1          2          3          4          5
     1  Pt   0.000000
     2  N    2.127710   0.000000
     3  O    2.905523   1.199194   0.000000
     4  O    2.877527   1.211988   2.122253   0.000000
     5  N    2.106240   2.934563   3.874807   2.973514   0.000000
     6  O    2.845819   2.944876   3.672970   2.864850   1.206912
     7  O    2.900174   3.984881   5.009246   3.866683   1.201337
     8  N    2.110444   3.010316   3.078956   3.971699   2.943223
     9  O    2.858082   3.940322   4.113735   4.713166   2.959253
    10  O    2.902032   3.281708   2.902619   4.387134   4.031554
    11  Br   2.602398   4.728694   5.415581   5.367954   3.342503
    12  Br   2.594747   3.452692   3.573207   4.486150   4.700593
    13  Br   2.603100   3.293880   4.353292   3.301615   3.400902
                    6          7          8          9         10
     6  O    0.000000
     7  O    2.128993   0.000000
     8  N    3.053159   3.918421   0.000000
     9  O    2.987597   3.742369   1.207288   0.000000
    10  O    3.999524   5.070939   1.203918   2.126553   0.000000
    11  Br   4.363001   3.327137   3.293302   3.307705   4.205969
    12  Br   5.339027   5.399731   3.360330   4.398880   3.287432
    13  Br   4.336875   3.514020   4.712913   5.371352   5.399780
                   11         12         13
    11  Br   0.000000
    12  Br   3.642212   0.000000
    13  Br   3.801919   3.646658   0.000000
 Stoichiometry    Br3N3O6Pt(2-)
 Framework group  C1[X(Br3N3O6Pt)]
 Deg. of freedom    33
 Full point group                 C1      NOp   1
 Largest Abelian subgroup         C1      NOp   1
 Largest concise Abelian subgroup C1      NOp   1
                         Standard orientation:                         
 ---------------------------------------------------------------------
 Center     Atomic      Atomic             Coordinates (Angstroms)
 Number     Number       Type             X           Y           Z
 ---------------------------------------------------------------------
      1         78           0       -0.048496   -0.053502    0.197654
      2          7           0       -1.379425    0.888731    1.564392
      3          8           0       -0.933581    1.636200    2.389365
      4          8           0       -2.507245    0.446936    1.606298
      5          7           0       -0.865197   -1.898239    0.802795
      6          8           0       -1.085193   -2.011194    1.984099
      7          8           0       -1.071481   -2.759382   -0.009049
      8          7           0        1.399883   -0.257364    1.719040
      9          8           0        1.831614   -1.370084    1.900721
     10          8           0        1.819277    0.722564    2.278744
     11         35           0        1.581270   -1.307973   -1.396912
     12         35           0        1.018344    2.189860   -0.551937
     13         35           0       -1.877650    0.252997   -1.628923
 ---------------------------------------------------------------------
 Rotational constants (GHZ):      0.3031597      0.2979941      0.2915967
 Basis read from rwf:  (5D, 7F)
 Pseudo-potential data read from rwf file.
 There are   244 symmetry adapted basis functions of A   symmetry.
 Integral buffers will be    131072 words long.
 Raffenetti 2 integral format.
 Two-electron integral symmetry is turned on.
   244 basis functions,   508 primitive gaussians,   264 cartesian basis functions
    97 alpha electrons       97 beta electrons
       nuclear repulsion energy      2542.5218795871 Hartrees.
 NAtoms=   13 NActive=   13 NUniq=   13 SFac= 7.50D-01 NAtFMM=   80 NAOKFM=F Big=F
 ------------------------------------------------------------------------------
 Polarizable Continuum Model (PCM)
 =================================
 Model                : PCM.
 Atomic radii         : UFF (Universal Force Field).
 Polarization charges : Total charges.
 Charge compensation  : None.
 Solution method      : Matrix inversion.
 Cavity type          : Scaled VdW (van der Waals Surface) (Alpha=1.100).
 Cavity algorithm     : GePol (No added spheres)
                        Default sphere list used, NSphG=   13.
                        Lebedev-Laikov grids with approx.  5.0 points / Ang**2.
                        Smoothing algorithm: Karplus/York (Gamma=1.0000).
                        Polarization charges: spherical gaussians, with
                                              point-specific exponents (IZeta= 3).
                        Self-potential: point-specific (ISelfS= 7).
                        Self-field    : sphere-specific E.n sum rule (ISelfD= 2).
 1st derivatives      : Analytical E(r).r(x)/FMM algorithm (CHGder, D1EAlg=3).
                        Cavity 1st derivative terms included.
 Solvent              : Water, Eps=  78.355300 Eps(inf)=   1.777849
 ------------------------------------------------------------------------------
 Spheres list:
 ISph  on   Nord    Re0     Alpha      Xe            Ye            Ze
    1  Pt      1    1.377   1.100     -0.048496     -0.053502      0.197654
    2   N      2    1.830   1.100     -1.379425      0.888731      1.564392
    3   O      3    1.750   1.100     -0.933581      1.636200      2.389365
    4   O      4    1.750   1.100     -2.507245      0.446936      1.606298
    5   N      5    1.830   1.100     -0.865197     -1.898239      0.802795
    6   O      6    1.750   1.100     -1.085193     -2.011194      1.984099
    7   O      7    1.750   1.100     -1.071481     -2.759382     -0.009049
    8   N      8    1.830   1.100      1.399883     -0.257364      1.719040
    9   O      9    1.750   1.100      1.831614     -1.370084      1.900721
   10   O     10    1.750   1.100      1.819277      0.722564      2.278744
   11  Br     11    2.095   1.100      1.581270     -1.307973     -1.396912
   12  Br     12    2.095   1.100      1.018344      2.189860     -0.551937
   13  Br     13    2.095   1.100     -1.877650      0.252997     -1.628923
 ------------------------------------------------------------------------------
 One-electron integrals computed using PRISM.
   1 Symmetry operations used in ECPInt.
 ECPInt:  NShTT=    4851 NPrTT=   23253 LenC2=    4412 LenP2D=   14314.
 LDataN:  DoStor=T MaxTD1= 6 Len=  172
 NBasis=   244 RedAO= T  NBF=   244
 NBsUse=   244 1.00D-06 NBFU=   244
 Defaulting to unpruned grid for atomic number  78.
 Initial guess read from the read-write file.
 B after Tr=     0.000000    0.000000    0.000000
         Rot=    1.000000    0.000000    0.000000    0.000000 Ang=   0.00 deg.
 Initial guess orbital symmetries:
       Occupied  (A) (A) (A) (A) (A) (A) (A) (A) (A) (A) (A) (A)
                 (A) (A) (A) (A) (A) (A) (A) (A) (A) (A) (A) (A)
                 (A) (A) (A) (A) (A) (A) (A) (A) (A) (A) (A) (A)
                 (A) (A) (A) (A) (A) (A) (A) (A) (A) (A) (A) (A)
                 (A) (A) (A) (A) (A) (A) (A) (A) (A) (A) (A) (A)
                 (A) (A) (A) (A) (A) (A) (A) (A) (A) (A) (A) (A)
                 (A) (A) (A) (A) (A) (A) (A) (A) (A) (A) (A) (A)
                 (A) (A) (A) (A) (A) (A) (A) (A) (A) (A) (A) (A)
                 (A)
       Virtual   (A) (A) (A) (A) (A) (A) (A) (A) (A) (A) (A) (A)
                 (A) (A) (A) (A) (A) (A) (A) (A) (A) (A) (A) (A)
                 (A) (A) (A) (A) (A) (A) (A) (A) (A) (A) (A) (A)
                 (A) (A) (A) (A) (A) (A) (A) (A) (A) (A) (A) (A)
                 (A) (A) (A) (A) (A) (A) (A) (A) (A) (A) (A) (A)
                 (A) (A) (A) (A) (A) (A) (A) (A) (A) (A) (A) (A)
                 (A) (A) (A) (A) (A) (A) (A) (A) (A) (A) (A) (A)
                 (A) (A) (A) (A) (A) (A) (A) (A) (A) (A) (A) (A)
                 (A) (A) (A) (A) (A) (A) (A) (A) (A) (A) (A) (A)
                 (A) (A) (A) (A) (A) (A) (A) (A) (A) (A) (A) (A)
                 (A) (A) (A) (A) (A) (A) (A) (A) (A) (A) (A) (A)
                 (A) (A) (A) (A) (A) (A) (A) (A) (A) (A) (A) (A)
                 (A) (A) (A)
 Harris functional with IExCor=  402 diagonalized for initial guess.
 ExpMin= 2.90D-02 ExpMax= 1.13D+05 ExpMxC= 1.70D+04 IAcc=3 IRadAn=         0 AccDes= 0.00D+00
 HarFok:  IExCor=  402 AccDes= 0.00D+00 IRadAn=         0 IDoV= 1
 ScaDFX=  1.000000  1.000000  1.000000  1.000000
 Defaulting to unpruned grid for atomic number  78.
 Defaulting to unpruned grid for atomic number  78.
 Defaulting to unpruned grid for atomic number  78.
 Defaulting to unpruned grid for atomic number  78.
 Defaulting to unpruned grid for atomic number  78.
[...]
 Vib (V=0)   24  0.105648D+01          0.023863          0.054947
 Electronic      0.100000D+01          0.000000          0.000000
 Translational   0.534469D+09          8.727923         20.096785
 Rotational      0.538411D+07          6.731114         15.498963
 ***** Axes restored to original set *****
 -------------------------------------------------------------------
 Center     Atomic                   Forces (Hartrees/Bohr)
 Number     Number              X              Y              Z
 -------------------------------------------------------------------
      1       78          -0.000021083    0.000013854    0.000026005
      2        7           0.000075224    0.000046019    0.000006456
      3        8          -0.000037048    0.000065202    0.000000812
      4        8           0.000075088    0.000094089    0.000022454
      5        7           0.000016911    0.000016405   -0.000006413
      6        8          -0.000020103    0.000015086   -0.000032249
      7        8           0.000010093   -0.000028161    0.000053902
      8        7          -0.000008727   -0.000018965   -0.000099665
      9        8          -0.000046346   -0.000034406   -0.000051833
     10        8          -0.000079122    0.000033664   -0.000059860
     11       35          -0.000042888   -0.000132940    0.000006402
     12       35           0.000007534   -0.000067038    0.000038458
     13       35           0.000070466   -0.000002809    0.000095531
 -------------------------------------------------------------------
 Cartesian Forces:  Max     0.000132940 RMS     0.000051357

 GradGradGradGradGradGradGradGradGradGradGradGradGradGradGradGradGradGrad
 Berny optimization.
 Internal  Forces:  Max     0.000066132 RMS     0.000022666
 Search for a local minimum.
 Step number   1 out of a maximum of    2
 All quantities printed in internal units (Hartrees-Bohrs-Radians)
 Second derivative matrix not updated -- analytic derivatives used.
     Eigenvalues ---    0.00045   0.00441   0.00497   0.04140   0.04295
     Eigenvalues ---    0.04455   0.06321   0.06600   0.06709   0.07589
     Eigenvalues ---    0.07756   0.08200   0.08308   0.08958   0.10203
     Eigenvalues ---    0.10966   0.11593   0.12369   0.13313   0.14640
     Eigenvalues ---    0.15199   0.16465   0.17694   0.20435   0.31268
     Eigenvalues ---    0.31634   0.34214   0.59001   0.59132   0.60312
     Eigenvalues ---    0.84259   0.84386   0.854761000.000001000.00000
     Eigenvalues --- 1000.000001000.000001000.000001000.000001000.00000
     Eigenvalues --- 1000.000001000.000001000.000001000.000001000.00000
     Eigenvalues --- 1000.000001000.000001000.000001000.000001000.00000
     Eigenvalues --- 1000.000001000.000001000.000001000.000001000.00000
     Eigenvalues --- 1000.000001000.00000
 Angle between quadratic step and forces=  59.63 degrees.
 Linear search not attempted -- first point.
 Iteration  1 RMS(Cart)=  0.00051076 RMS(Int)=  0.00000012
 Iteration  2 RMS(Cart)=  0.00000012 RMS(Int)=  0.00000001
 Variable       Old X    -DE/DX   Delta X   Delta X   Delta X     New X
                                 (Linear)    (Quad)   (Total)
    R1        4.00572  -0.00001   0.00000  -0.00006  -0.00006   4.00566
    R2        3.98864   0.00000   0.00000  -0.00002  -0.00002   3.98862
    R3        4.00908  -0.00001   0.00000   0.00010   0.00010   4.00918
    R4        4.92536  -0.00001   0.00000  -0.00014  -0.00014   4.92523
    R5        4.92112  -0.00002   0.00000  -0.00020  -0.00020   4.92091
    R6        4.92258   0.00003   0.00000   0.00043   0.00043   4.92301
    R7        2.29215   0.00007   0.00000   0.00009   0.00009   2.29223
    R8        2.29825   0.00002   0.00000   0.00002   0.00002   2.29827
    R9        2.30292   0.00002   0.00000   0.00003   0.00003   2.30296
   R10        2.29041   0.00001   0.00000   0.00000   0.00000   2.29041
   R11        2.30002   0.00001   0.00000  -0.00002  -0.00002   2.30000
   R12        2.29086   0.00004   0.00000   0.00003   0.00003   2.29089
    A1        1.53626   0.00000   0.00000   0.00001   0.00001   1.53627
    A2        1.57432  -0.00002   0.00000  -0.00012  -0.00012   1.57420
    A3        1.58620   0.00003   0.00000   0.00042   0.00042   1.58663
    A4        1.56064   0.00002   0.00000  -0.00002  -0.00002   1.56062
    A5        1.53666   0.00003   0.00000   0.00017   0.00017   1.53684
    A6        1.59254  -0.00003   0.00000  -0.00031  -0.00031   1.59222
    A7        1.57757  -0.00001   0.00000  -0.00013  -0.00013   1.57744
    A8        1.53837  -0.00002   0.00000  -0.00010  -0.00010   1.53827
    A9        1.60769  -0.00006   0.00000  -0.00053  -0.00053   1.60716
   A10        1.56825   0.00000   0.00000  -0.00013  -0.00013   1.56813
   A11        1.60952   0.00002   0.00000   0.00023   0.00023   1.60975
   A12        1.56116   0.00004   0.00000   0.00049   0.00049   1.56164
   A13        2.06807  -0.00001   0.00000   0.00003   0.00003   2.06810
   A14        2.04511  -0.00001   0.00000  -0.00007  -0.00007   2.04504
   A15        2.16978   0.00002   0.00000   0.00004   0.00004   2.16982
   A16        2.02457  -0.00001   0.00000  -0.00003  -0.00003   2.02454
   A17        2.09154  -0.00002   0.00000  -0.00002  -0.00002   2.09152
   A18        2.16706   0.00002   0.00000   0.00006   0.00006   2.16712
   A19        2.03534   0.00002   0.00000   0.00011   0.00011   2.03545
   A20        2.07940  -0.00004   0.00000  -0.00016  -0.00016   2.07923
   A21        2.16836   0.00002   0.00000   0.00006   0.00006   2.16842
    D1        2.39547   0.00000   0.00000   0.00034   0.00034   2.39582
    D2       -0.72428   0.00000   0.00000   0.00032   0.00032  -0.72396
    D3        0.85895  -0.00003   0.00000   0.00017   0.00017   0.85912
    D4       -2.26080  -0.00003   0.00000   0.00014   0.00014  -2.26066
    D5       -0.74879   0.00003   0.00000   0.00069   0.00069  -0.74810
    D6        2.41464   0.00003   0.00000   0.00067   0.00067   2.41531
    D7       -2.30979  -0.00001   0.00000   0.00021   0.00021  -2.30958
    D8        0.85364  -0.00001   0.00000   0.00019   0.00019   0.85383
    D9       -0.74567   0.00001   0.00000  -0.00034  -0.00034  -0.74600
   D10        2.39219   0.00002   0.00000   0.00002   0.00002   2.39220
   D11        0.82984   0.00000   0.00000  -0.00047  -0.00047   0.82938
   D12       -2.31549   0.00001   0.00000  -0.00011  -0.00011  -2.31560
   D13        2.36744  -0.00002   0.00000  -0.00055  -0.00055   2.36689
   D14       -0.77789  -0.00001   0.00000  -0.00019  -0.00019  -0.77808
   D15       -2.30606   0.00000   0.00000  -0.00033  -0.00033  -2.30639
   D16        0.83179   0.00001   0.00000   0.00003   0.00003   0.83182
   D17        2.16584   0.00000   0.00000   0.00055   0.00055   2.16639
   D18       -0.96230  -0.00003   0.00000   0.00013   0.00013  -0.96218
   D19        0.62972   0.00000   0.00000   0.00054   0.00054   0.63026
   D20       -2.49842  -0.00002   0.00000   0.00011   0.00011  -2.49831
   D21       -0.96395   0.00003   0.00000   0.00086   0.00086  -0.96310
   D22        2.19109   0.00000   0.00000   0.00043   0.00043   2.19152
   D23       -2.53100   0.00003   0.00000   0.00097   0.00097  -2.53004
   D24        0.62404   0.00000   0.00000   0.00054   0.00054   0.62458
         Item               Value     Threshold  Converged?
 Maximum Force            0.000066     0.000450     YES
 RMS     Force            0.000023     0.000300     YES
 Maximum Displacement     0.001918     0.001800     NO 
 RMS     Displacement     0.000511     0.001200     YES
 Predicted change in Energy=-1.067443D-07
 GradGradGradGradGradGradGradGradGradGradGradGradGradGradGradGradGradGrad

 1\1\GINC-NEQC23\Freq\RB3LYP\Gen\Br3N3O6Pt1(2-)\GUEST\01-Dec-2021\0\\#N
  Geom=AllCheck Guess=TCheck SCRF=Check GenChk RB3LYP/ChkBas Freq\\Estr
 utura 59\\-2,1\Pt,-0.032190744,-0.1508407852,-0.1533764029\N,-1.119867
 8069,0.1055722658,-1.9546224329\O,-2.3139068652,-0.1075710713,-1.94486
 8561\O,-0.4906216293,0.4374504988,-2.9410300803\N,1.4756894947,-1.1001
 561253,-1.2848098598\O,1.0919291406,-1.8864506517,-2.1330954202\O,2.64
 10240716,-0.8443474022,-1.0713220292\N,-0.923472768,-2.0561993886,0.12
 23943366\O,-0.1651365013,-2.9995744136,0.2502367596\O,-2.1323171436,-2
 .1469765048,0.1296053451\Br,1.2957531133,-0.5466043696,2.0541578737\Br
 ,-1.9159327119,1.0331315403,1.1998737516\Br,1.10571435,2.1598274073,-0
 .5427042803\\Version=EM64L-G09RevA.02\State=1-A\HF=-8456.0887229\RMSD=
 2.768e-09\RMSF=5.136e-05\ZeroPoint=0.0384219\Thermal=0.0552691\Dipole=
 -0.0128062,0.322188,0.3149325\DipoleDeriv=0.838395,-0.088888,-0.063080
 4,-0.0908496,1.1539105,-0.0461781,-0.0386971,-0.0500158,1.1442296,2.37
 29764,0.233724,0.509455,0.268663,0.5983641,-0.4286318,0.504834,-0.5361
 212,2.7607877,-1.7982902,-0.0090756,-0.7659824,-0.108757,-0.3212501,0.
 0611767,-0.6169156,0.1476685,-1.2538332,-0.8271937,-0.1300275,-0.00517
 23,-0.0669027,-0.4195824,0.412143,-0.2396623,0.484398,-2.1274146,2.690
 7197,-0.2187882,-0.3592727,-0.2504491,1.3815245,1.0551105,-0.4204911,1
 .0751432,1.6383967,-0.983358,0.1283123,0.1819725,0.3227221,-1.0477269,
 -0.88786,0.4067745,-0.8911613,-1.2550267,-2.1895815,0.277162,0.399432,
 0.1916955,-0.608312,-0.3245275,0.3292787,-0.339089,-0.7083355,2.338444
 3,0.3595289,-0.0254909,0.4052387,2.8967828,-0.4023636,-0.0149298,-0.31
 91195,0.4893279,-0.8449602,0.1830983,-0.0694716,-0.0645093,-2.17288,0.
 3338957,-0.0182235,0.2432761,-0.3374634,-1.6797448,-0.7810966,0.167653
 ,-0.6584308,-1.4056258,0.1805415,0.1142815,0.1323543,-0.3034179,-0.551
 752,0.0919868,-0.5945165,0.1155828,-0.241973,0.2341342,-0.5803231,0.12
 94939,-1.2034652,-0.8969035,0.4967441,0.5546676,0.4478313,-0.5144194,-
 0.3126973,0.4906495,-0.3049696,-0.5999862,-0.4687514,-0.5426804,0.0698
 066,-0.5118349,-1.2988124,0.1252566,0.0834244,0.2281423,-0.2437991\Pol
 ar=246.5790696,1.7423566,228.9908636,-0.3101799,0.7995445,228.5118188\
 PG=C01 [X(Br3N3O6Pt1)]\NImag=0\\0.24477799,0.00283609,0.23056788,0.000
 27392,0.01361546,0.23089652,-0.03671912,0.00134644,-0.01495049,0.82534
 203,0.00148469,-0.05056733,-0.00699417,0.14435527,0.20904915,-0.013697
 04,-0.00792569,-0.05783943,-0.13270693,-0.12861062,0.60680554,-0.01933
 133,-0.00362166,0.00065225,-0.58075072,-0.08643890,-0.02653776,0.69253
 442,-0.00090414,0.01288527,0.00287801,-0.08458985,-0.06827052,0.008235
 76,0.12591952,0.05121691,-0.01608829,-0.00054442,0.00597796,-0.0353227
 4,0.00753636,-0.10845183,-0.03547316,-0.02565805,0.10530809,0.00538428
 ,-0.00046280,-0.00199688,-0.20519961,-0.06530882,0.17317439,-0.0922841
 8,-0.04021759,0.08942968,0.29483974,-0.00358344,0.01019804,0.00738174,
 -0.06794899,-0.09123655,0.11928505,-0.03516960,0.00908358,0.01837915,0
 .10518191,0.07598890,0.01293050,0.01140487,-0.01710310,0.18411843,0.12
 199615,-0.44635088,0.06665280,0.01455389,0.00652528,-0.25632761,-0.145
 53570,0.46620177,-0.03992600,0.01561567,0.01460832,-0.01770811,0.00576
 606,-0.01124271,0.00529731,0.00008294,0.00301720,0.00204470,-0.0020553
 2,0.00466374,0.76975491,0.01434686,-0.05472437,0.00100154,0.00542008,-
 0.00458328,0.01350236,-0.00281903,0.00126762,-0.00326298,0.00314826,-0
 .00064065,-0.00773067,0.14133546,0.41904638,0.01437266,0.00021329,-0.0
 5600438,-0.00260106,-0.00079519,0.01659068,-0.00238917,0.00067547,-0.0
 0433151,0.00196374,0.00011120,-0.00873828,0.12011019,0.27809519,0.4610
 4292,0.00560019,0.00623244,0.00732189,0.00279388,0.00138335,0.00058992
 ,-0.00133838,-0.00033067,-0.00064499,-0.00252036,0.00164701,-0.0001108
 4,-0.13589702,-0.06871044,-0.07114506,0.18696398,-0.00429127,-0.002078
 21,-0.01750090,-0.00191830,0.00078441,-0.00562524,0.00205980,-0.000483
 60,0.00156623,0.00039284,-0.00175964,0.00406935,-0.07637216,-0.2780069
 9,-0.24519539,0.13502588,0.29952460,-0.00448504,-0.01779995,-0.0058545
 4,0.00054326,0.00331156,-0.01061292,0.00067158,-0.00110694,0.00262495,
 -0.00383384,0.00118050,0.00763949,-0.07958257,-0.24534397,-0.31982791,
 0.14045631,0.29401171,0.34386678,-0.02120833,-0.00819894,-0.00672874,0
 .00430551,-0.00155814,0.00628757,-0.00166300,-0.00008368,-0.00204300,-
 0.00081701,0.00150903,-0.00283330,-0.58063279,-0.08379919,-0.06113521,
 -0.05355123,-0.06034201,-0.06249981,0.65793166,0.00340937,0.01122735,-
 0.00299708,-0.00000652,0.00097356,-0.00331343,0.00047730,-0.00036232,0
 .00095826,-0.00077477,0.00000802,0.00235916,-0.07743395,-0.09236164,-0
 .03856268,-0.07603580,-0.01242804,-0.03098369,0.14586865,0.09824109,0.
 00586313,-0.00217931,0.01097351,-0.00011106,0.00013981,-0.00327865,0.0
 0101083,-0.00008421,0.00117737,-0.00019281,0.00018280,0.00170065,-0.05
 442525,-0.03819132,-0.09237291,-0.07986877,-0.03188208,-0.01098809,0.1
 2272402,0.07417019,0.09871349,-0.03377415,-0.01298475,-0.00159362,0.01
 699297,0.00337814,0.00575991,-0.01008416,-0.00516472,0.00110147,-0.003
 93777,-0.00004268,-0.00207375,-0.01520341,-0.00576181,0.00428514,0.002
 85980,0.00237931,-0.00134007,0.00338657,0.00032298,0.00014005,0.882408
 48,-0.01319418,-0.05919471,-0.00693121,0.00985205,-0.00844406,0.019635
 08,-0.00686067,0.00046678,-0.00468940,-0.00104897,0.00184327,-0.007339
 42,-0.01310719,0.01420986,0.01638950,0.00101899,-0.01010266,-0.0068315
 7,0.00686101,-0.00235801,-0.00397148,-0.13090046,0.59488716,-0.0012832
 1,-0.00489329,-0.05095081,-0.00095198,0.00922443,-0.00811680,0.0034766
 1,-0.00080009,0.00259994,-0.00030513,-0.00142435,0.00191602,0.00656356
 ,0.00131810,-0.00468552,0.00052703,0.00225082,0.00107857,-0.00164938,-
 0.00016773,0.00085318,0.01764126,-0.06278186,0.16233339,0.00361645,0.0
 0086640,0.00005809,-0.00338430,-0.00128185,0.00007316,0.00212835,0.001
 74255,-0.00074481,0.00107147,0.00010229,-0.00001053,0.00100021,0.00223
 862,0.00423344,-0.00187679,-0.00444890,-0.00042993,-0.00016667,-0.0001
 8236,-0.00094333,-0.25736561,0.20893551,-0.02822478,0.37037678,0.01662
 006,-0.01754761,0.00653691,-0.00331576,0.00208405,-0.00716351,0.002532
 42,-0.00110488,0.00260793,0.00038701,-0.00049052,0.00304570,0.00469231
 ,-0.00745468,-0.00801138,-0.00066498,0.00649718,0.00510562,-0.00312353
 ,0.00119988,0.00255887,0.22016183,-0.42221791,0.05082313,-0.28881019,0
 .43288703,-0.00176736,0.00509016,0.01176239,0.00091557,-0.00117970,0.0
 0132657,-0.00115375,0.00016785,-0.00064511,-0.00017579,0.00016580,-0.0
 0024872,-0.00182656,-0.00070498,-0.00204749,0.00175142,0.00288955,-0.0
 0155147,0.00135725,0.00041369,0.00028633,-0.03011784,0.05055010,-0.059
 07791,0.03921865,-0.05587416,0.03335884,-0.01753052,-0.00043647,0.0022
 5319,-0.01168772,0.00129085,-0.00515544,0.00832017,0.00366576,-0.00006
 588,0.00290431,-0.00050620,0.00158455,0.00501312,-0.00109639,-0.002299
 16,-0.00136325,-0.00034332,0.00165529,-0.00145507,0.00070267,0.0003821
 7,-0.58953952,-0.06487224,0.00724588,-0.11530470,0.05937453,-0.0086038
 8,0.72307356,-0.01735358,0.00480857,0.00205658,-0.00058123,0.00328644,
 -0.00524603,0.00162954,-0.00292805,0.00333122,-0.00017574,-0.00093502,
 0.00263967,0.00358444,-0.00418686,-0.00417595,-0.00082972,0.00254119,0
 .00208931,-0.00228451,0.00101993,0.00124078,-0.07329530,-0.11877459,0.
 00966013,0.08253363,0.01895808,0.00004369,0.00968553,0.10965782,0.0032
 4609,0.00193027,0.01318988,-0.00349158,-0.00223675,0.00148018,0.001302
 70,0.00338299,-0.00124136,0.00129747,0.00065986,-0.00130345,-0.0004793
 8,0.00064986,0.00152046,-0.00008515,-0.00091927,-0.00075014,0.00005756
 ,-0.00014756,-0.00037585,0.00766330,0.00916742,-0.05282675,-0.01149214
 ,-0.00001091,0.01933834,0.00162111,-0.01142485,0.02289753,-0.02745086,
 0.00201088,-0.01877123,0.00976455,0.00013082,0.00620074,-0.00569631,-0
 .00027134,-0.00320357,-0.00126372,0.00184354,-0.00874142,-0.00327609,-
 0.00083372,0.00123782,0.00115641,0.00036341,0.00001707,0.00165583,-0.0
 0049965,0.00262424,-0.00193331,-0.00207045,-0.00261290,-0.00099677,-0.
 00003620,-0.00062211,0.00059456,0.00008669,0.00047917,0.03052978,0.004
 11858,-0.01459123,0.00551392,-0.00169105,0.00715244,-0.00204080,0.0024
 8910,-0.00128687,0.00166376,0.00028640,-0.00165679,0.00188552,0.000587
 55,0.00035669,-0.00159463,-0.00014346,0.00011498,0.00043359,-0.0018810
 1,-0.00034494,0.00018904,-0.00000953,-0.00521350,-0.00186258,-0.003561
 69,-0.00000481,-0.00313744,-0.00023310,0.00126831,0.00017799,-0.002024
 03,0.01626461,-0.01924229,0.00468113,-0.04445821,0.00632059,0.00078703
 ,0.01670836,-0.01110552,-0.00066833,-0.00821057,-0.00037117,0.00208515
 ,-0.01237531,0.00203337,0.00021023,-0.00233533,-0.00006223,-0.00022861
 ,0.00021346,-0.00040594,-0.00009498,-0.00357698,-0.00002213,-0.0010156
 0,-0.00082866,-0.00156235,-0.00170150,-0.00096446,-0.00037041,-0.00043
 184,0.00021345,0.02502610,-0.00554812,0.05511291,-0.03927018,0.0137423
 3,0.01664329,-0.00250615,-0.00069824,-0.00075590,0.00257723,-0.0003220
 6,-0.00001345,0.00106367,0.00026287,0.00006988,0.01294755,-0.00484520,
 -0.00626008,-0.00388356,0.00756612,0.00864999,-0.01000631,0.00186361,0
 .00270009,-0.00229620,-0.00073343,-0.00033620,0.00111910,0.00009660,0.
 00006015,0.00157026,0.00013897,-0.00037132,-0.00335650,0.00214739,-0.0
 0036479,0.04649031,0.01366072,-0.02262198,-0.00975767,-0.00080062,0.00
 025493,0.00003281,0.00007854,-0.00063539,-0.00143365,0.00010611,0.0000
 5249,-0.00023075,-0.00440682,0.00998283,0.00316530,0.00137902,-0.00488
 634,-0.00392883,0.00748817,-0.00257169,-0.00186253,-0.00287445,-0.0029
 7233,-0.00144259,0.00075049,0.00007225,0.00033354,0.00356771,-0.004988
 98,-0.00215662,0.00197739,-0.00012699,0.00027232,-0.01832597,0.0269374
 4,0.01591248,-0.00949002,-0.02627782,-0.00184618,-0.00219230,-0.003275
 00,0.00334868,-0.00155275,-0.00252406,0.00038222,0.00044711,0.00029241
 ,-0.00453862,0.00242905,0.01113455,0.00150002,-0.00387291,-0.00595451,
 0.00826163,-0.00131574,-0.00342869,-0.00046066,-0.00018691,0.00040534,
 -0.00009663,-0.00001084,0.00001669,-0.00006878,-0.00139431,-0.00054108
 ,-0.00222392,0.00115164,0.00203961,-0.02208426,0.01590996,0.02859553,-
 0.02416842,-0.01694564,0.00223000,-0.00124321,-0.00250324,-0.00198989,
 0.00029060,0.00047327,0.00005155,-0.00128552,-0.00124042,0.00007753,-0
 .00341438,0.00137650,-0.00037326,0.00105633,-0.00007140,0.00017775,0.0
 0222084,0.00228848,0.00009670,0.00848630,0.00612001,-0.00009075,-0.000
 21753,-0.00791409,0.00096426,-0.00459521,-0.00313872,0.00025216,0.0002
 7242,-0.00008514,0.00012676,-0.00444924,-0.00260030,0.00191403,0.02704
 703,-0.01714974,-0.04836166,0.00519687,-0.00012153,-0.00048325,-0.0007
 6572,-0.00027637,0.00015146,-0.00045441,-0.00151384,-0.00045514,-0.001
 11779,0.00171103,-0.00290491,-0.00031474,0.00002838,0.00028312,-0.0001
 3734,-0.00045586,-0.00224319,-0.00031056,0.00479142,0.01787070,0.00009
 586,0.00111549,-0.01287805,0.00124190,-0.01079934,-0.00972683,0.000927
 57,-0.00067732,-0.00193190,0.00165310,-0.00089300,0.00150376,0.0000780
 2,0.02424069,0.05917589,0.00396445,0.00589749,-0.01431198,0.00008416,-
 0.00098660,-0.00498581,-0.00045609,-0.00002359,0.00119086,-0.00304427,
 -0.00291833,0.00184413,0.00109870,-0.00197241,0.00005473,-0.00022955,0
 .00043674,0.00011633,-0.00139266,-0.00031840,0.00031664,-0.00098306,-0
 .00199466,0.00730001,-0.00007884,0.00209414,-0.00155400,0.00182136,0.0
 0161159,-0.00160121,0.00059002,0.00316812,-0.00153828,0.00206261,0.001
 09868,-0.00048296,-0.00343683,-0.00609277,0.01365153\\0.00002108,-0.00
 001385,-0.00002600,-0.00007522,-0.00004602,-0.00000646,0.00003705,-0.0
 0006520,-0.00000081,-0.00007509,-0.00009409,-0.00002245,-0.00001691,-0
 .00001640,0.00000641,0.00002010,-0.00001509,0.00003225,-0.00001009,0.0
 0002816,-0.00005390,0.00000873,0.00001897,0.00009966,0.00004635,0.0000
 3441,0.00005183,0.00007912,-0.00003366,0.00005986,0.00004289,0.0001329
 4,-0.00000640,-0.00000753,0.00006704,-0.00003846,-0.00007047,0.0000028
 1,-0.00009553\\\@


 ARTHROPOD AXIOM: A COMPUTER SYSTEM IS LIKE A SPIDER'S WEB.
 YOU CANNOT PULL ON ONE END WITHOUT MAKING THE OTHER END MOVE.
     -- GREG WETTSTEIN
 Job cpu time:  0 days  2 hours 52 minutes 22.7 seconds.
 File lengths (MBytes):  RWF=    201 Int=      0 D2E=      0 Chk=      9 Scr=      1
 Normal termination of Gaussian 09 at Wed Dec  1 06:42:44 2021.
