 Entering Gaussian System, Link 0=g09
 Input=estrutura61_D2O.com
 Output=estrutura61_D2O.log
 Initial command:
 /home/scr/programs/g09/l1.exe "/home/scr/diego/Gau-7194.inp" -scrdir="/home/scr/diego/"
 Entering Link 1 = /home/scr/programs/g09/l1.exe PID=      7196.
  
 Copyright (c) 1988,1990,1992,1993,1995,1998,2003,2009,2013,
            Gaussian, Inc.  All Rights Reserved.
  
 This is part of the Gaussian(R) 09 program.  It is based on
 the Gaussian(R) 03 system (copyright 2003, Gaussian, Inc.),
 the Gaussian(R) 98 system (copyright 1998, Gaussian, Inc.),
 the Gaussian(R) 94 system (copyright 1995, Gaussian, Inc.),
 the Gaussian 92(TM) system (copyright 1992, Gaussian, Inc.),
 the Gaussian 90(TM) system (copyright 1990, Gaussian, Inc.),
 the Gaussian 88(TM) system (copyright 1988, Gaussian, Inc.),
 the Gaussian 86(TM) system (copyright 1986, Carnegie Mellon
 University), and the Gaussian 82(TM) system (copyright 1983,
 Carnegie Mellon University). Gaussian is a federally registered
 trademark of Gaussian, Inc.
  
 This software contains proprietary and confidential information,
 including trade secrets, belonging to Gaussian, Inc.
  
 This software is provided under written license and may be
 used, copied, transmitted, or stored only in accord with that
 written license.
  
 The following legend is applicable only to US Government
 contracts under FAR:
  
                    RESTRICTED RIGHTS LEGEND
  
 Use, reproduction and disclosure by the US Government is
 subject to restrictions as set forth in subparagraphs (a)
 and (c) of the Commercial Computer Software - Restricted
 Rights clause in FAR 52.227-19.
  
 Gaussian, Inc.
 340 Quinnipiac St., Bldg. 40, Wallingford CT 06492
  
  
 ---------------------------------------------------------------
 Warning -- This program may not be used in any manner that
 competes with the business of Gaussian, Inc. or will provide
 assistance to any competitor of Gaussian, Inc.  The licensee
 of this program is prohibited from giving any competitor of
 Gaussian, Inc. access to this program.  By using this program,
 the user acknowledges that Gaussian, Inc. is engaged in the
 business of creating and licensing software in the field of
 computational chemistry and represents and warrants to the
 licensee that it is not a competitor of Gaussian, Inc. and that
 it will not use this program in any manner prohibited above.
 ---------------------------------------------------------------
  

 Cite this work as:
 Gaussian 09, Revision D.01,
 M. J. Frisch, G. W. Trucks, H. B. Schlegel, G. E. Scuseria, 
 M. A. Robb, J. R. Cheeseman, G. Scalmani, V. Barone, B. Mennucci, 
 G. A. Petersson, H. Nakatsuji, M. Caricato, X. Li, H. P. Hratchian, 
 A. F. Izmaylov, J. Bloino, G. Zheng, J. L. Sonnenberg, M. Hada, 
 M. Ehara, K. Toyota, R. Fukuda, J. Hasegawa, M. Ishida, T. Nakajima, 
 Y. Honda, O. Kitao, H. Nakai, T. Vreven, J. A. Montgomery, Jr., 
 J. E. Peralta, F. Ogliaro, M. Bearpark, J. J. Heyd, E. Brothers, 
 K. N. Kudin, V. N. Staroverov, T. Keith, R. Kobayashi, J. Normand, 
 K. Raghavachari, A. Rendell, J. C. Burant, S. S. Iyengar, J. Tomasi, 
 M. Cossi, N. Rega, J. M. Millam, M. Klene, J. E. Knox, J. B. Cross, 
 V. Bakken, C. Adamo, J. Jaramillo, R. Gomperts, R. E. Stratmann, 
 O. Yazyev, A. J. Austin, R. Cammi, C. Pomelli, J. W. Ochterski, 
 R. L. Martin, K. Morokuma, V. G. Zakrzewski, G. A. Voth, 
 P. Salvador, J. J. Dannenberg, S. Dapprich, A. D. Daniels, 
 O. Farkas, J. B. Foresman, J. V. Ortiz, J. Cioslowski, 
 and D. J. Fox, Gaussian, Inc., Wallingford CT, 2013.
 
 ******************************************
 Gaussian 09:  EM64L-G09RevD.01 24-Apr-2013
                18-Aug-2021 
 ******************************************
 %mem=15gb
 %nproc=8
 Will use up to    8 processors via shared memory.
 ------------------------------------------------------------
 #b3lyp/gen pseudo=read opt freq=noraman scrf=(solvent=water)
 ------------------------------------------------------------
 1/14=-1,18=20,19=15,26=3,38=1/1,3;
 2/9=110,12=2,17=6,18=5,40=1/2;
 3/5=7,11=2,16=1,17=8,25=1,30=1,70=2201,71=1,72=1,74=-5/1,2,3;
 4//1;
 5/5=2,38=5,53=1/2;
 6/7=2,8=2,9=2,10=2,28=1/1;
 7//1,2,3,16;
 1/14=-1,18=20,19=15,26=3/3(2);
 2/9=110/2;
 99//99;
 2/9=110/2;
 3/5=7,6=1,11=2,16=1,17=8,25=1,30=1,70=2205,71=1,72=1,74=-5,82=7/1,2,3;
 4/5=5,16=3,69=1/1;
 5/5=2,38=5,53=1/2;
 7//1,2,3,16;
 1/14=-1,18=20,19=15,26=3/3(-5);
 2/9=110/2;
 6/7=2,8=2,9=2,10=2,19=2,28=1/1;
 99/9=1/99;
 ------------
 Estrutura 61
 ------------
 Symbolic Z-matrix:
 Charge = -2 Multiplicity = 1
 Pt                   -0.31955   0.33835   0. 
 N                    -0.31955  -1.65165   0. 
 O                     0.95213  -2.10499   0.1641 
 O                    -0.81328  -2.10499  -1.18335 
 N                     1.67045   0.33835   0. 
 O                     2.12378   1.35457  -0.7819 
 O                     2.12378   0.50738   1.27103 
 Cl                   -0.31955   0.33835  -1.99 
 N                    -0.31955   2.32835   0. 
 N                    -2.30955   0.33835   0. 
 O                    -2.76288  -0.04279   1.22426 
 O                    -2.76288   1.58916  -0.28206 
 O                     0.38494   2.78168   1.07135 
 O                     0.25602   2.78168  -1.14578 
 Br                   -0.31955   0.33835   2.43 
 

 GradGradGradGradGradGradGradGradGradGradGradGradGradGradGradGradGradGrad
 Berny optimization.
 Initialization pass.
                           ----------------------------
                           !    Initial Parameters    !
                           ! (Angstroms and Degrees)  !
 --------------------------                            --------------------------
 ! Name  Definition              Value          Derivative Info.                !
 --------------------------------------------------------------------------------
 ! R1    R(1,2)                  1.99           estimate D2E/DX2                !
 ! R2    R(1,5)                  1.99           estimate D2E/DX2                !
 ! R3    R(1,8)                  1.99           estimate D2E/DX2                !
 ! R4    R(1,9)                  1.99           estimate D2E/DX2                !
 ! R5    R(1,10)                 1.99           estimate D2E/DX2                !
 ! R6    R(1,15)                 2.43           estimate D2E/DX2                !
 ! R7    R(2,3)                  1.36           estimate D2E/DX2                !
 ! R8    R(2,4)                  1.36           estimate D2E/DX2                !
 ! R9    R(5,6)                  1.36           estimate D2E/DX2                !
 ! R10   R(5,7)                  1.36           estimate D2E/DX2                !
 ! R11   R(9,13)                 1.36           estimate D2E/DX2                !
 ! R12   R(9,14)                 1.36           estimate D2E/DX2                !
 ! R13   R(10,11)                1.36           estimate D2E/DX2                !
 ! R14   R(10,12)                1.36           estimate D2E/DX2                !
 ! A1    A(2,1,5)               90.0            estimate D2E/DX2                !
 ! A2    A(2,1,8)               90.0            estimate D2E/DX2                !
 ! A3    A(2,1,10)              90.0            estimate D2E/DX2                !
 ! A4    A(2,1,15)              90.0            estimate D2E/DX2                !
 ! A5    A(5,1,8)               90.0            estimate D2E/DX2                !
 ! A6    A(5,1,9)               90.0            estimate D2E/DX2                !
 ! A7    A(5,1,15)              90.0            estimate D2E/DX2                !
 ! A8    A(8,1,9)               90.0            estimate D2E/DX2                !
 ! A9    A(8,1,10)              90.0            estimate D2E/DX2                !
 ! A10   A(9,1,10)              90.0            estimate D2E/DX2                !
 ! A11   A(9,1,15)              90.0            estimate D2E/DX2                !
 ! A12   A(10,1,15)             90.0            estimate D2E/DX2                !
 ! A13   A(1,2,3)              109.4712         estimate D2E/DX2                !
 ! A14   A(1,2,4)              109.4712         estimate D2E/DX2                !
 ! A15   A(3,2,4)              109.4713         estimate D2E/DX2                !
 ! A16   A(1,5,6)              109.4712         estimate D2E/DX2                !
 ! A17   A(1,5,7)              109.4712         estimate D2E/DX2                !
 ! A18   A(6,5,7)              109.4713         estimate D2E/DX2                !
 ! A19   A(1,9,13)             109.4712         estimate D2E/DX2                !
 ! A20   A(1,9,14)             109.4712         estimate D2E/DX2                !
 ! A21   A(13,9,14)            109.4713         estimate D2E/DX2                !
 ! A22   A(1,10,11)            109.4712         estimate D2E/DX2                !
 ! A23   A(1,10,12)            109.4712         estimate D2E/DX2                !
 ! A24   A(11,10,12)           109.4713         estimate D2E/DX2                !
 ! A25   L(2,1,9,5,-1)         180.0            estimate D2E/DX2                !
 ! A26   L(5,1,10,2,-1)        180.0            estimate D2E/DX2                !
 ! A27   L(8,1,15,2,-1)        180.0            estimate D2E/DX2                !
 ! A28   L(2,1,9,5,-2)         180.0            estimate D2E/DX2                !
 ! A29   L(5,1,10,2,-2)        180.0            estimate D2E/DX2                !
 ! A30   L(8,1,15,2,-2)        180.0            estimate D2E/DX2                !
 ! D1    D(5,1,2,3)              7.3528         estimate D2E/DX2                !
 ! D2    D(5,1,2,4)           -112.6472         estimate D2E/DX2                !
 ! D3    D(8,1,2,3)             97.3528         estimate D2E/DX2                !
 ! D4    D(8,1,2,4)            -22.6472         estimate D2E/DX2                !
 ! D5    D(10,1,2,3)          -172.6472         estimate D2E/DX2                !
 ! D6    D(10,1,2,4)            67.3528         estimate D2E/DX2                !
 ! D7    D(15,1,2,3)           -82.6472         estimate D2E/DX2                !
 ! D8    D(15,1,2,4)           157.3528         estimate D2E/DX2                !
 ! D9    D(3,2,9,13)           -49.3195         estimate D2E/DX2                !
 ! D10   D(3,2,9,14)            70.6805         estimate D2E/DX2                !
 ! D11   D(4,2,9,13)          -169.3195         estimate D2E/DX2                !
 ! D12   D(4,2,9,14)           -49.3195         estimate D2E/DX2                !
 ! D13   D(2,1,5,6)            142.4248         estimate D2E/DX2                !
 ! D14   D(2,1,5,7)            -97.5752         estimate D2E/DX2                !
 ! D15   D(8,1,5,6)             52.4248         estimate D2E/DX2                !
 ! D16   D(8,1,5,7)            172.4248         estimate D2E/DX2                !
 ! D17   D(9,1,5,6)            -37.5752         estimate D2E/DX2                !
 ! D18   D(9,1,5,7)             82.4248         estimate D2E/DX2                !
 ! D19   D(15,1,5,6)          -127.5752         estimate D2E/DX2                !
 ! D20   D(15,1,5,7)            -7.5752         estimate D2E/DX2                !
 ! D21   D(6,5,10,11)         -144.8676         estimate D2E/DX2                !
 ! D22   D(6,5,10,12)          -24.8676         estimate D2E/DX2                !
 ! D23   D(7,5,10,11)          -24.8676         estimate D2E/DX2                !
 ! D24   D(7,5,10,12)           95.1324         estimate D2E/DX2                !
 ! D25   D(5,1,9,13)           -56.6723         estimate D2E/DX2                !
 ! D26   D(5,1,9,14)            63.3277         estimate D2E/DX2                !
 ! D27   D(8,1,9,13)          -146.6723         estimate D2E/DX2                !
 ! D28   D(8,1,9,14)           -26.6723         estimate D2E/DX2                !
 ! D29   D(10,1,9,13)          123.3277         estimate D2E/DX2                !
 ! D30   D(10,1,9,14)         -116.6723         estimate D2E/DX2                !
 ! D31   D(15,1,9,13)           33.3277         estimate D2E/DX2                !
 ! D32   D(15,1,9,14)          153.3277         estimate D2E/DX2                !
 ! D33   D(2,1,10,11)           72.7076         estimate D2E/DX2                !
 ! D34   D(2,1,10,12)         -167.2924         estimate D2E/DX2                !
 ! D35   D(8,1,10,11)          162.7076         estimate D2E/DX2                !
 ! D36   D(8,1,10,12)          -77.2924         estimate D2E/DX2                !
 ! D37   D(9,1,10,11)         -107.2924         estimate D2E/DX2                !
 ! D38   D(9,1,10,12)           12.7076         estimate D2E/DX2                !
 ! D39   D(15,1,10,11)         -17.2924         estimate D2E/DX2                !
 ! D40   D(15,1,10,12)         102.7076         estimate D2E/DX2                !
 --------------------------------------------------------------------------------
 Trust Radius=3.00D-01 FncErr=1.00D-07 GrdErr=1.00D-06
 Number of steps in this run=     94 maximum allowed number of steps=    100.
 GradGradGradGradGradGradGradGradGradGradGradGradGradGradGradGradGradGrad

                          Input orientation:                          
 ---------------------------------------------------------------------
 Center     Atomic      Atomic             Coordinates (Angstroms)
 Number     Number       Type             X           Y           Z
 ---------------------------------------------------------------------
      1         78           0       -0.319549    0.338346    0.000000
      2          7           0       -0.319549   -1.651654    0.000000
      3          8           0        0.952128   -2.104987    0.164097
      4          8           0       -0.813275   -2.104987   -1.183353
      5          7           0        1.670451    0.338346    0.000000
      6          8           0        2.123784    1.354574   -0.781901
      7          8           0        2.123784    0.507377    1.271030
      8         17           0       -0.319549    0.338346   -1.990000
      9          7           0       -0.319549    2.328346    0.000000
     10          7           0       -2.309549    0.338346    0.000000
     11          8           0       -2.762882   -0.042792    1.224264
     12          8           0       -2.762882    1.589159   -0.282057
     13          8           0        0.384937    2.781679    1.071349
     14          8           0        0.256023    2.781679   -1.145778
     15         35           0       -0.319549    0.338346    2.430000
 ---------------------------------------------------------------------
                    Distance matrix (angstroms):
                    1          2          3          4          5
     1  Pt   0.000000
     2  N    1.990000   0.000000
     3  O    2.759341   1.360000   0.000000
     4  O    2.759341   1.360000   2.220871   0.000000
     5  N    1.990000   2.814285   2.552017   3.679551   0.000000
     6  O    2.759341   3.952044   3.773096   4.555880   1.360000
     7  O    2.759341   3.499544   3.069614   4.634087   1.360000
     8  Cl   1.990000   2.814285   3.496737   2.619985   2.814285
     9  N    1.990000   3.980000   4.615033   4.615033   2.814285
    10  N    1.990000   2.814285   4.078644   3.099844   3.980000
    11  O    2.759341   3.171299   4.379258   3.721590   4.615033
    12  O    2.759341   4.068452   5.258047   4.273174   4.615033
    13  O    2.759341   4.615033   5.002431   5.513519   2.961454
    14  O    2.759341   4.615033   5.106842   5.002431   3.046849
    15  Br   2.430000   3.140860   3.566701   4.389756   3.140860
                    6          7          8          9         10
     6  O    0.000000
     7  O    2.220871   0.000000
     8  Cl   2.908969   4.078329   0.000000
     9  N    2.743989   3.301715   2.814285   0.000000
    10  N    4.615033   4.615033   2.814285   2.814285   0.000000
    11  O    5.464141   4.917761   4.055445   3.618148   1.360000
    12  O    4.917761   5.240404   3.232874   2.568235   1.360000
    13  O    2.914576   2.869827   3.979703   1.360000   3.791823
    14  O    2.378564   3.808141   2.648371   1.360000   3.723552
    15  Br   4.161599   2.709550   4.420000   3.140860   3.140860
                   11         12         13         14         15
    11  O    0.000000
    12  O    2.220871   0.000000
    13  O    4.231995   3.628027   0.000000
    14  O    4.765346   3.358854   2.220871   0.000000
    15  Br   2.751171   3.858713   2.883073   4.368906   0.000000
 Stoichiometry    BrClN4O8Pt(2-)
 Framework group  C1[X(BrClN4O8Pt)]
 Deg. of freedom    39
 Full point group                 C1      NOp   1
 Largest Abelian subgroup         C1      NOp   1
 Largest concise Abelian subgroup C1      NOp   1
                         Standard orientation:                         
 ---------------------------------------------------------------------
 Center     Atomic      Atomic             Coordinates (Angstroms)
 Number     Number       Type             X           Y           Z
 ---------------------------------------------------------------------
      1         78           0       -0.237357   -0.114356    0.023724
      2          7           0       -0.305223   -1.548080   -1.354655
      3          8           0       -0.275196   -0.987719   -2.593483
      4          8           0       -1.452518   -2.263576   -1.208430
      5          7           0       -0.421710    1.263422   -1.400299
      6          8           0       -1.207131    2.278354   -0.950157
      7          8           0        0.806880    1.749609   -1.722463
      8         17           0       -2.217637   -0.193484    0.203531
      9          7           0       -0.169491    1.319368    1.402103
     10          7           0       -0.053005   -1.492134    1.447747
     11          8           0        1.194278   -2.031916    1.397532
     12          8           0       -0.249030   -0.916049    2.664011
     13          8           0        0.846822    2.176330    1.115181
     14          8           0       -1.347532    1.998917    1.407759
     15         35           0        2.180774   -0.017733   -0.195839
 ---------------------------------------------------------------------
 Rotational constants (GHZ):      0.4733506      0.4214341      0.4012659
 General basis read from cards:  (5D, 7F)
 ======================================================================================================
                                       Pseudopotential Parameters
 ======================================================================================================
  Center     Atomic      Valence      Angular      Power
  Number     Number     Electrons     Momentum     of R      Exponent        Coefficient   SO-Coeffient
 ======================================================================================================
    1         78           18
                                      G and up 
                                                     1      728.9394056       -0.16192680    0.00000000
                                                     2      320.6567800    -1320.28738520    0.00000000
                                                     2       52.8680174     -298.31781350    0.00000000
                                                     2       12.0280128      -87.58370650    0.00000000
                                                     2        3.5238913       -8.14932740    0.00000000
                                      S - G
                                                     0      409.4437358        2.73342180    0.00000000
                                                     1      274.5419231       59.70243290    0.00000000
                                                     2      127.5658570      891.45895500    0.00000000
                                                     2       32.9036631      368.44676560    0.00000000
                                                     2        5.0593880      238.02630900    0.00000000
                                                     2        4.1506556     -107.05564540    0.00000000
                                      P - G
                                                     0      466.1728892        1.88785680    0.00000000
                                                     1      120.7888259       76.01386290    0.00000000
                                                     2       36.4118791      343.55111160    0.00000000
                                                     2        5.6985408      119.49117860    0.00000000
                                      D - G
                                                     0      249.5650763        2.93436780    0.00000000
                                                     1      126.6678585       59.33065710    0.00000000
                                                     2       63.1430586      452.44451940    0.00000000
                                                     2       17.9059470      210.47694790    0.00000000
                                                     2        4.2239373       58.62541120    0.00000000
                                      F - G
                                                     0      121.8158799        3.95342530    0.00000000
                                                     1       60.8757030       53.85551820    0.00000000
                                                     2       31.4767147      247.43051330    0.00000000
                                                     2        9.8811751      127.81879760    0.00000000
                                                     2        2.7319874       15.37720460    0.00000000
    2          7
                                   No pseudopotential on this center.
    3          8
                                   No pseudopotential on this center.
    4          8
                                   No pseudopotential on this center.
    5          7
                                   No pseudopotential on this center.
    6          8
                                   No pseudopotential on this center.
    7          8
                                   No pseudopotential on this center.
    8         17
                                   No pseudopotential on this center.
    9          7
                                   No pseudopotential on this center.
   10          7
                                   No pseudopotential on this center.
   11          8
                                   No pseudopotential on this center.
   12          8
                                   No pseudopotential on this center.
   13          8
                                   No pseudopotential on this center.
   14          8
                                   No pseudopotential on this center.
   15         35
                                   No pseudopotential on this center.
 ======================================================================================================
 There are   258 symmetry adapted cartesian basis functions of A   symmetry.
 There are   240 symmetry adapted basis functions of A   symmetry.
   240 basis functions,   460 primitive gaussians,   258 cartesian basis functions
    82 alpha electrons       82 beta electrons
       nuclear repulsion energy      2098.6619442115 Hartrees.
 NAtoms=   15 NActive=   15 NUniq=   15 SFac= 1.00D+00 NAtFMM=   60 NAOKFM=F Big=F
 Integral buffers will be    131072 words long.
 Raffenetti 2 integral format.
 Two-electron integral symmetry is turned on.
 ------------------------------------------------------------------------------
 Polarizable Continuum Model (PCM)
 =================================
 Model                : PCM (using non-symmetric T matrix).
 Atomic radii         : UFF (Universal Force Field).
 Polarization charges : Total charges.
 Charge compensation  : None.
 Solution method      : On-the-fly selection.
 Cavity type          : Scaled VdW (van der Waals Surface) (Alpha=1.100).
 Cavity algorithm     : GePol (No added spheres)
                        Default sphere list used, NSphG=   15.
                        Lebedev-Laikov grids with approx.  5.0 points / Ang**2.
                        Smoothing algorithm: Karplus/York (Gamma=1.0000).
                        Polarization charges: spherical gaussians, with
                                              point-specific exponents (IZeta= 3).
                        Self-potential: point-specific (ISelfS= 7).
                        Self-field    : sphere-specific E.n sum rule (ISelfD= 2).
 1st derivatives      : Analytical E(r).r(x)/FMM algorithm (CHGder, D1EAlg=3).
                        Cavity 1st derivative terms included.
 Solvent              : Water, Eps=  78.355300 Eps(inf)=   1.777849
 ------------------------------------------------------------------------------
 Spheres list:
 ISph  on   Nord     Re0    Alpha      Xe            Ye            Ze
    1  Pt      1    1.3770  1.100     -0.237357     -0.114356      0.023724
    2   N      2    1.8300  1.100     -0.305223     -1.548080     -1.354655
    3   O      3    1.7500  1.100     -0.275196     -0.987719     -2.593483
    4   O      4    1.7500  1.100     -1.452518     -2.263576     -1.208430
    5   N      5    1.8300  1.100     -0.421710      1.263422     -1.400299
    6   O      6    1.7500  1.100     -1.207131      2.278354     -0.950157
    7   O      7    1.7500  1.100      0.806880      1.749609     -1.722463
    8  Cl      8    1.9735  1.100     -2.217637     -0.193484      0.203531
    9   N      9    1.8300  1.100     -0.169491      1.319368      1.402103
   10   N     10    1.8300  1.100     -0.053005     -1.492134      1.447747
   11   O     11    1.7500  1.100      1.194278     -2.031916      1.397532
   12   O     12    1.7500  1.100     -0.249030     -0.916049      2.664011
   13   O     13    1.7500  1.100      0.846822      2.176330      1.115181
   14   O     14    1.7500  1.100     -1.347532      1.998917      1.407759
   15  Br     15    2.0945  1.100      2.180774     -0.017733     -0.195839
 ------------------------------------------------------------------------------
 One-electron integrals computed using PRISM.
   1 Symmetry operations used in ECPInt.
 ECPInt:  NShTT=    5050 NPrTT=   21966 LenC2=    4775 LenP2D=   14697.
 LDataN:  DoStor=T MaxTD1= 6 Len=  172
 NBasis=   240 RedAO= T EigKep=  2.28D-03  NBF=   240
 NBsUse=   240 1.00D-06 EigRej= -1.00D+00 NBFU=   240
 Defaulting to unpruned grid for atomic number  78.
 ExpMin= 2.90D-02 ExpMax= 1.13D+05 ExpMxC= 1.70D+04 IAcc=3 IRadAn=         5 AccDes= 0.00D+00
 Harris functional with IExCor=  402 and IRadAn=       5 diagonalized for initial guess.
 HarFok:  IExCor=  402 AccDes= 0.00D+00 IRadAn=         5 IDoV= 1 UseB2=F ITyADJ=14
 ICtDFT=  3500011 ScaDFX=  1.000000  1.000000  1.000000  1.000000
 Defaulting to unpruned grid for atomic number  78.
 Defaulting to unpruned grid for atomic number  78.
 Defaulting to unpruned grid for atomic number  78.
 Defaulting to unpruned grid for atomic number  78.
 Defaulting to unpruned grid for atomic number  78.
 Defaulting to unpruned grid for atomic number  78.
 Defaulting to unpruned grid for atomic number  78.
 Defaulting to unpruned grid for atomic number  78.
 FoFCou: FMM=F IPFlag=           0 FMFlag=      100000 FMFlg1=           0
         NFxFlg=           0 DoJE=T BraDBF=F KetDBF=T FulRan=T
         wScrn=  0.000000 ICntrl=     500 IOpCl=  0 I1Cent=   200000004 NGrid=           0
         NMat0=    1 NMatS0=      1 NMatT0=    0 NMatD0=    1 NMtDS0=    0 NMtDT0=    0
 Petite list used in FoFCou.
 Keep R1 ints in memory in canonical form, NReq=427106744.
 Requested convergence on RMS density matrix=1.00D-08 within 128 cycles.
 Requested convergence on MAX density matrix=1.00D-06.
 Requested convergence on             energy=1.00D-06.
 No special actions if energy rises.
 Defaulting to unpruned grid for atomic number  78.
 Defaulting to unpruned grid for atomic number  78.
 Defaulting to unpruned grid for atomic number  78.
 Defaulting to unpruned grid for atomic number  78.
 Defaulting to unpruned grid for atomic number  78.
 Defaulting to unpruned grid for atomic number  78.
 Defaulting to unpruned grid for atomic number  78.
 Defaulting to unpruned grid for atomic number  78.
 Inv3:  Mode=1 IEnd=     8690412.
 Iteration    1 A*A^-1 deviation from unit magnitude is 7.22D-15 for    318.
 Iteration    1 A*A^-1 deviation from orthogonality  is 6.25D-15 for   1200     28.
 Iteration    1 A^-1*A deviation from unit magnitude is 6.88D-15 for     87.
 Iteration    1 A^-1*A deviation from orthogonality  is 1.08D-13 for   1245   1235.
 EnCoef did   100 forward-backward iterations
 EnCoef did   100 forward-backward iterations
 EnCoef did     3 forward-backward iterations
 EnCoef did     4 forward-backward iterations
 EnCoef did     5 forward-backward iterations
 EnCoef did     4 forward-backward iterations
 Error on total polarization charges =  0.00961
 SCF Done:  E(RB3LYP) =  -3972.88820715     A.U. after   27 cycles
            NFock= 27  Conv=0.79D-08     -V/T= 2.0233

 **********************************************************************

            Population analysis using the SCF density.

 **********************************************************************

 Orbital symmetries:
       Occupied  (A) (A) (A) (A) (A) (A) (A) (A) (A) (A) (A) (A)
                 (A) (A) (A) (A) (A) (A) (A) (A) (A) (A) (A) (A)
                 (A) (A) (A) (A) (A) (A) (A) (A) (A) (A) (A) (A)
                 (A) (A) (A) (A) (A) (A) (A) (A) (A) (A) (A) (A)
                 (A) (A) (A) (A) (A) (A) (A) (A) (A) (A) (A) (A)
                 (A) (A) (A) (A) (A) (A) (A) (A) (A) (A) (A) (A)
                 (A) (A) (A) (A) (A) (A) (A) (A) (A) (A)
       Virtual   (A) (A) (A) (A) (A) (A) (A) (A) (A) (A) (A) (A)
                 (A) (A) (A) (A) (A) (A) (A) (A) (A) (A) (A) (A)
                 (A) (A) (A) (A) (A) (A) (A) (A) (A) (A) (A) (A)
                 (A) (A) (A) (A) (A) (A) (A) (A) (A) (A) (A) (A)
                 (A) (A) (A) (A) (A) (A) (A) (A) (A) (A) (A) (A)
                 (A) (A) (A) (A) (A) (A) (A) (A) (A) (A) (A) (A)
                 (A) (A) (A) (A) (A) (A) (A) (A) (A) (A) (A) (A)
                 (A) (A) (A) (A) (A) (A) (A) (A) (A) (A) (A) (A)
                 (A) (A) (A) (A) (A) (A) (A) (A) (A) (A) (A) (A)
                 (A) (A) (A) (A) (A) (A) (A) (A) (A) (A) (A) (A)
                 (A) (A) (A) (A) (A) (A) (A) (A) (A) (A) (A) (A)
                 (A) (A) (A) (A) (A) (A) (A) (A) (A) (A) (A) (A)
                 (A) (A) (A) (A) (A) (A) (A) (A) (A) (A) (A) (A)
                 (A) (A)
 The electronic state is 1-A.
 Alpha  occ. eigenvalues -- -482.73707-101.46353 -62.41877 -56.25035 -56.24803
 Alpha  occ. eigenvalues --  -56.24775 -19.15590 -19.15561 -19.15288 -19.15058
 Alpha  occ. eigenvalues --  -19.15040 -19.14710 -19.14580 -19.14557 -14.49913
 Alpha  occ. eigenvalues --  -14.49881 -14.49806 -14.49647  -9.42431  -8.63663
 Alpha  occ. eigenvalues --   -7.19267  -7.18273  -7.18236  -6.46761  -6.45890
 Alpha  occ. eigenvalues --   -6.45797  -4.05911  -2.58243  -2.58013  -2.57941
 Alpha  occ. eigenvalues --   -2.57255  -2.57251  -2.27839  -2.27435  -2.27375
 Alpha  occ. eigenvalues --   -1.10684  -1.09656  -1.09590  -1.09126  -0.94275
 Alpha  occ. eigenvalues --   -0.93841  -0.93678  -0.93183  -0.82140  -0.72065
 Alpha  occ. eigenvalues --   -0.68514  -0.67911  -0.64558  -0.63501  -0.52442
 Alpha  occ. eigenvalues --   -0.51746  -0.50511  -0.49286  -0.49066  -0.48110
 Alpha  occ. eigenvalues --   -0.47679  -0.46678  -0.46348  -0.45749  -0.45458
 Alpha  occ. eigenvalues --   -0.44760  -0.43046  -0.40313  -0.40208  -0.36184
 Alpha  occ. eigenvalues --   -0.32123  -0.31243  -0.29883  -0.29496  -0.29061
 Alpha  occ. eigenvalues --   -0.28025  -0.27562  -0.27091  -0.26785  -0.26418
 Alpha  occ. eigenvalues --   -0.26133  -0.26028  -0.25401  -0.25231  -0.24198
 Alpha  occ. eigenvalues --   -0.22315  -0.21232
 Alpha virt. eigenvalues --   -0.15185  -0.14993  -0.10046  -0.09579  -0.04266
 Alpha virt. eigenvalues --    0.00640   0.05354   0.06393   0.06503   0.17046
 Alpha virt. eigenvalues --    0.17504   0.18349   0.18879   0.19759   0.19939
 Alpha virt. eigenvalues --    0.20089   0.20415   0.21387   0.30513   0.30780
 Alpha virt. eigenvalues --    0.35464   0.42283   0.42500   0.44545   0.45672
 Alpha virt. eigenvalues --    0.48913   0.50161   0.58478   0.58722   0.59670
 Alpha virt. eigenvalues --    0.62773   0.64495   0.66417   0.67817   0.68822
 Alpha virt. eigenvalues --    0.70661   0.71769   0.74885   0.75291   0.76441
 Alpha virt. eigenvalues --    0.78341   0.79479   0.80967   0.83020   0.85223
 Alpha virt. eigenvalues --    0.85998   0.86952   0.88295   0.89107   0.90940
 Alpha virt. eigenvalues --    0.91612   0.91748   0.93915   0.94171   0.95360
 Alpha virt. eigenvalues --    0.97060   0.98271   0.98752   0.99524   1.00927
 Alpha virt. eigenvalues --    1.02906   1.04302   1.04603   1.05814   1.06956
 Alpha virt. eigenvalues --    1.09962   1.10851   1.11713   1.12148   1.13456
 Alpha virt. eigenvalues --    1.16018   1.16406   1.16868   1.19373   1.19971
 Alpha virt. eigenvalues --    1.21059   1.24319   1.26067   1.26604   1.26916
 Alpha virt. eigenvalues --    1.28676   1.32226   1.33025   1.34354   1.36245
 Alpha virt. eigenvalues --    1.39724   1.47109   1.48479   1.49211   1.53124
 Alpha virt. eigenvalues --    1.57878   1.61570   1.86900   1.88258   1.93029
 Alpha virt. eigenvalues --    1.94022   1.97028   2.00746   2.01660   2.06181
 Alpha virt. eigenvalues --    2.07873   2.14726   2.15956   2.24274   2.29546
 Alpha virt. eigenvalues --    2.29612   2.32081   2.33303   2.33914   2.34686
 Alpha virt. eigenvalues --    2.35771   2.36248   2.64044   2.64340   2.65542
 Alpha virt. eigenvalues --    2.65691   2.66016   2.66148   2.66514   2.66810
 Alpha virt. eigenvalues --    2.67282   2.67746   2.68569   2.68815   2.69950
 Alpha virt. eigenvalues --    2.70874   2.71332   2.74246   2.75152   2.76623
 Alpha virt. eigenvalues --    2.78073   2.78774   2.95877   2.97901   2.98058
 Alpha virt. eigenvalues --    3.00435   3.01366   3.01493   3.01727   3.01930
 Alpha virt. eigenvalues --    3.21745   3.22549   3.22903   3.24365   3.46774
 Alpha virt. eigenvalues --    3.48178   3.49145   3.50291   3.52002   3.56627
 Alpha virt. eigenvalues --    3.64108   3.65873   3.69317   3.70970   3.72724
 Alpha virt. eigenvalues --    3.75022   3.82381   8.20099
          Condensed to atoms (all electrons):
               1          2          3          4          5          6
     1  Pt  17.497076   0.043821   0.004640  -0.001459   0.024087  -0.011814
     2  N    0.043821   6.645756   0.176369   0.176496   0.001520   0.000139
     3  O    0.004640   0.176369   8.212487  -0.090964  -0.018576   0.000179
     4  O   -0.001459   0.176496  -0.090964   8.196872   0.000009   0.000006
     5  N    0.024087   0.001520  -0.018576   0.000009   6.664601   0.179072
     6  O   -0.011814   0.000139   0.000179   0.000006   0.179072   8.194113
     7  O   -0.011825  -0.000801  -0.000310   0.000000   0.175837  -0.091942
     8  Cl  -0.083822  -0.056749  -0.000057  -0.020510  -0.036554  -0.007554
     9  N    0.028365  -0.005671   0.000121   0.000106  -0.012164  -0.014501
    10  N    0.033912  -0.002192   0.000053  -0.002022  -0.005906   0.000117
    11  O   -0.007294  -0.001951   0.000022  -0.000118   0.000111   0.000000
    12  O    0.007688   0.000080   0.000001   0.000037   0.000130  -0.000003
    13  O   -0.008601   0.000113  -0.000001   0.000000  -0.004803   0.002497
    14  O   -0.012116   0.000087   0.000000   0.000000  -0.003678  -0.001840
    15  Br   0.246422  -0.008935   0.000453   0.000477  -0.015702   0.000773
               7          8          9         10         11         12
     1  Pt  -0.011825  -0.083822   0.028365   0.033912  -0.007294   0.007688
     2  N   -0.000801  -0.056749  -0.005671  -0.002192  -0.001951   0.000080
     3  O   -0.000310  -0.000057   0.000121   0.000053   0.000022   0.000001
     4  O    0.000000  -0.020510   0.000106  -0.002022  -0.000118   0.000037
     5  N    0.175837  -0.036554  -0.012164  -0.005906   0.000111   0.000130
     6  O   -0.091942  -0.007554  -0.014501   0.000117   0.000000  -0.000003
     7  O    8.199209   0.000662  -0.000387   0.000100   0.000000   0.000000
     8  Cl   0.000662  17.637261  -0.049461  -0.028583   0.000542  -0.003599
     9  N   -0.000387  -0.049461   6.646580   0.001838  -0.000246  -0.018950
    10  N    0.000100  -0.028583   0.001838   6.645492   0.178274   0.173346
    11  O    0.000000   0.000542  -0.000246   0.178274   8.188182  -0.090508
    12  O    0.000000  -0.003599  -0.018950   0.173346  -0.090508   8.217400
    13  O   -0.001198   0.000512   0.182094  -0.000137   0.000014   0.000036
    14  O    0.000144  -0.033505   0.188020   0.000081  -0.000002  -0.000220
    15  Br  -0.028917  -0.008424  -0.006109  -0.020180  -0.018599   0.001848
              13         14         15
     1  Pt  -0.008601  -0.012116   0.246422
     2  N    0.000113   0.000087  -0.008935
     3  O   -0.000001   0.000000   0.000453
     4  O    0.000000   0.000000   0.000477
     5  N   -0.004803  -0.003678  -0.015702
     6  O    0.002497  -0.001840   0.000773
     7  O   -0.001198   0.000144  -0.028917
     8  Cl   0.000512  -0.033505  -0.008424
     9  N    0.182094   0.188020  -0.006109
    10  N   -0.000137   0.000081  -0.020180
    11  O    0.000014  -0.000002  -0.018599
    12  O    0.000036  -0.000220   0.001848
    13  O    8.201927  -0.096071  -0.018602
    14  O   -0.096071   8.188955   0.000436
    15  Br  -0.018602   0.000436  34.928986
 Mulliken charges:
               1
     1  Pt   0.250920
     2  N    0.031920
     3  O   -0.284417
     4  O   -0.258930
     5  N    0.052017
     6  O   -0.249240
     7  O   -0.240574
     8  Cl  -0.310160
     9  N    0.060365
    10  N    0.025809
    11  O   -0.248426
    12  O   -0.287287
    13  O   -0.257779
    14  O   -0.230290
    15  Br  -0.053926
 Sum of Mulliken charges =  -2.00000
 Mulliken charges with hydrogens summed into heavy atoms:
               1
     1  Pt   0.250920
     2  N    0.031920
     3  O   -0.284417
     4  O   -0.258930
     5  N    0.052017
     6  O   -0.249240
     7  O   -0.240574
     8  Cl  -0.310160
     9  N    0.060365
    10  N    0.025809
    11  O   -0.248426
    12  O   -0.287287
    13  O   -0.257779
    14  O   -0.230290
    15  Br  -0.053926
 Electronic spatial extent (au):  <R**2>=           3386.4386
 Charge=             -2.0000 electrons
 Dipole moment (field-independent basis, Debye):
    X=              0.4318    Y=             -1.9020    Z=              0.0264  Tot=              1.9506
 Quadrupole moment (field-independent basis, Debye-Ang):
   XX=           -148.1275   YY=           -158.0725   ZZ=           -154.2523
   XY=              0.3623   XZ=             -1.1286   YZ=             -0.1072
 Traceless Quadrupole moment (field-independent basis, Debye-Ang):
   XX=              5.3566   YY=             -4.5884   ZZ=             -0.7682
   XY=              0.3623   XZ=             -1.1286   YZ=             -0.1072
 Octapole moment (field-independent basis, Debye-Ang**2):
  XXX=             27.9058  YYY=            -32.8569  ZZZ=             -1.9608  XYY=             17.9640
  XXY=             -2.0724  XXZ=             -1.9834  XZZ=             10.6845  YZZ=             10.5329
  YYZ=             -0.0324  XYZ=             14.3825
 Hexadecapole moment (field-independent basis, Debye-Ang**3):
 XXXX=          -1388.3770 YYYY=          -1507.0578 ZZZZ=          -1387.5204 XXXY=              5.6499
 XXXZ=            -11.9229 YYYX=              5.8318 YYYZ=             -7.3653 ZZZX=             -3.9610
 ZZZY=              6.7908 XXYY=           -507.3164 XXZZ=           -453.2299 YYZZ=           -491.4465
 XXYZ=             -7.1300 YYXZ=            -27.9002 ZZXY=             -6.1965
 N-N= 2.098661944211D+03 E-N=-1.367061376653D+04  KE= 3.882293765727D+03
   1 Symmetry operations used in ECPInt.
 ECPInt:  NShTT=    5050 NPrTT=   21966 LenC2=    4775 LenP2D=   14697.
 LDataN:  DoStor=T MaxTD1= 7 Len=  274
 D1PCM: PCM CHGder 1st derivatives, ID1Alg=3 FixD1E=F DoIter=F DoCFld=F I1PDM=0.
 Calling FoFJK, ICntrl=      2127 FMM=F ISym2X=0 I1Cent= 0 IOpClX= 0 NMat=1 NMatS=1 NMatT=0.
 Defaulting to unpruned grid for atomic number  78.
 Defaulting to unpruned grid for atomic number  78.
 Defaulting to unpruned grid for atomic number  78.
 Defaulting to unpruned grid for atomic number  78.
 Defaulting to unpruned grid for atomic number  78.
 Defaulting to unpruned grid for atomic number  78.
 Defaulting to unpruned grid for atomic number  78.
 Defaulting to unpruned grid for atomic number  78.
 ***** Axes restored to original set *****
 -------------------------------------------------------------------
 Center     Atomic                   Forces (Hartrees/Bohr)
 Number     Number              X              Y              Z
 -------------------------------------------------------------------
      1       78          -0.049932927   -0.054852035    0.174909915
      2        7           0.104867529   -0.100395154   -0.132499404
      3        8          -0.089596774    0.021225193    0.020841820
      4        8          -0.000963483    0.021040488    0.100290310
      5        7           0.110948201    0.168889051    0.079696620
      6        8          -0.014158402   -0.094267460    0.027451903
      7        8          -0.012614995   -0.051218533   -0.097451316
      8       17          -0.002819464   -0.007486468   -0.236247753
      9        7           0.182800310    0.115383240   -0.019563080
     10        7          -0.106034501    0.112641419    0.129775055
     11        8           0.021941772   -0.008803766   -0.102381684
     12        8           0.021542825   -0.088830280   -0.014258465
     13        8          -0.079626363   -0.017560327   -0.062725044
     14        8          -0.077892059   -0.010046075    0.076466641
     15       35          -0.008461668   -0.005719292    0.055694480
 -------------------------------------------------------------------
 Cartesian Forces:  Max     0.236247753 RMS     0.088520199

 GradGradGradGradGradGradGradGradGradGradGradGradGradGradGradGradGradGrad
 Berny optimization.
 FormGI is forming the generalized inverse of G from B-inverse, IUseBI=4.
 Internal  Forces:  Max     0.236248613 RMS     0.045736428
 Search for a local minimum.
 Step number   1 out of a maximum of   94
 All quantities printed in internal units (Hartrees-Bohrs-Radians)
 Mixed Optimization -- RFO/linear search
 Second derivative matrix not updated -- first step.
 ITU=  0
     Eigenvalues ---    0.00230   0.00230   0.00230   0.00230   0.03392
     Eigenvalues ---    0.03398   0.03419   0.03424   0.06381   0.06382
     Eigenvalues ---    0.06422   0.06423   0.12110   0.12167   0.12615
     Eigenvalues ---    0.12615   0.19509   0.20378   0.20378   0.20378
     Eigenvalues ---    0.20378   0.25000   0.25000   0.25000   0.25000
     Eigenvalues ---    0.25000   0.25000   0.25000   0.25000   0.25000
     Eigenvalues ---    0.52948   0.52948   0.52948   0.52948   0.52948
     Eigenvalues ---    0.52948   0.52948   0.52948   0.57823
 RFO step:  Lambda=-2.71299434D-01 EMin= 2.30000000D-03
 Linear search not attempted -- first point.
 Maximum step size (   0.300) exceeded in Quadratic search.
    -- Step size scaled by   0.502
 Iteration  1 RMS(Cart)=  0.06082363 RMS(Int)=  0.00148013
 Iteration  2 RMS(Cart)=  0.00184598 RMS(Int)=  0.00062123
 Iteration  3 RMS(Cart)=  0.00000445 RMS(Int)=  0.00062122
 Iteration  4 RMS(Cart)=  0.00000001 RMS(Int)=  0.00062122
 Variable       Old X    -DE/DX   Delta X   Delta X   Delta X     New X
                                 (Linear)    (Quad)   (Total)
    R1        3.76056   0.05812   0.00000   0.06136   0.06136   3.82192
    R2        3.76056   0.08417   0.00000   0.08886   0.08886   3.84942
    R3        3.76056   0.23625   0.00000   0.13948   0.13948   3.90004
    R4        3.76056   0.08778   0.00000   0.09267   0.09267   3.85323
    R5        3.76056   0.06255   0.00000   0.06604   0.06604   3.82659
    R6        4.59203   0.05569   0.00000   0.05989   0.05989   4.65193
    R7        2.57003  -0.08834   0.00000  -0.05533  -0.05533   2.51470
    R8        2.57003  -0.09392   0.00000  -0.05883  -0.05883   2.51120
    R9        2.57003  -0.09094   0.00000  -0.05696  -0.05696   2.51307
   R10        2.57003  -0.10164   0.00000  -0.06366  -0.06366   2.50636
   R11        2.57003  -0.09651   0.00000  -0.06045  -0.06045   2.50958
   R12        2.57003  -0.10074   0.00000  -0.06310  -0.06310   2.50693
   R13        2.57003  -0.09701   0.00000  -0.06076  -0.06076   2.50926
   R14        2.57003  -0.08592   0.00000  -0.05382  -0.05382   2.51621
    A1        1.57080  -0.00315   0.00000  -0.00300  -0.00300   1.56780
    A2        1.57080  -0.00190   0.00000  -0.00292  -0.00292   1.56788
    A3        1.57080   0.01129   0.00000   0.01240   0.01249   1.58328
    A4        1.57080  -0.00491   0.00000  -0.00725  -0.00720   1.56359
    A5        1.57080   0.00084   0.00000   0.00153   0.00154   1.57234
    A6        1.57080  -0.00467   0.00000  -0.00603  -0.00612   1.56468
    A7        1.57080   0.00535   0.00000   0.00772   0.00771   1.57851
    A8        1.57080   0.00306   0.00000   0.00491   0.00492   1.57571
    A9        1.57080  -0.00147   0.00000  -0.00283  -0.00278   1.56802
   A10        1.57080  -0.00347   0.00000  -0.00337  -0.00337   1.56743
   A11        1.57080   0.00375   0.00000   0.00526   0.00529   1.57609
   A12        1.57080  -0.00471   0.00000  -0.00642  -0.00638   1.56442
   A13        1.91063   0.02204   0.00000   0.02660   0.02587   1.93650
   A14        1.91063   0.02761   0.00000   0.03195   0.03123   1.94187
   A15        1.91063  -0.00073   0.00000   0.01008   0.00876   1.91940
   A16        1.91063   0.03646   0.00000   0.04137   0.03980   1.95043
   A17        1.91063   0.05038   0.00000   0.05476   0.05321   1.96384
   A18        1.91063  -0.01516   0.00000  -0.00201  -0.00474   1.90589
   A19        1.91063   0.03135   0.00000   0.03608   0.03459   1.94523
   A20        1.91063   0.05571   0.00000   0.05951   0.05805   1.96869
   A21        1.91063  -0.01692   0.00000  -0.00445  -0.00703   1.90360
   A22        1.91063   0.02847   0.00000   0.03279   0.03209   1.94273
   A23        1.91063   0.01947   0.00000   0.02413   0.02343   1.93407
   A24        1.91063   0.00024   0.00000   0.01103   0.00976   1.92040
   A25        3.14159  -0.00782   0.00000  -0.00903  -0.00911   3.13248
   A26        3.14159   0.00814   0.00000   0.00940   0.00949   3.15108
   A27        3.14159  -0.00680   0.00000  -0.01017  -0.01012   3.13147
   A28        3.14159   0.00116   0.00000   0.00199   0.00198   3.14358
   A29        3.14159   0.00063   0.00000   0.00130   0.00126   3.14286
   A30        3.14159   0.00618   0.00000   0.00924   0.00929   3.15088
    D1        0.12833   0.01401   0.00000   0.02233   0.02252   0.15085
    D2       -1.96606  -0.01550   0.00000  -0.02587  -0.02607  -1.99214
    D3        1.69913   0.01485   0.00000   0.02386   0.02408   1.72320
    D4       -0.39527  -0.01467   0.00000  -0.02434  -0.02452  -0.41979
    D5       -3.01326   0.01338   0.00000   0.02103   0.02126  -2.99200
    D6        1.17553  -0.01614   0.00000  -0.02717  -0.02734   1.14819
    D7       -1.44247   0.00866   0.00000   0.01461   0.01479  -1.42768
    D8        2.74632  -0.02085   0.00000  -0.03358  -0.03380   2.71252
    D9       -0.86079  -0.00134   0.00000  -0.00257  -0.00264  -0.86342
   D10        1.23361   0.02889   0.00000   0.04778   0.04805   1.28166
   D11       -2.95518  -0.02968   0.00000  -0.04958  -0.04987  -3.00505
   D12       -0.86079   0.00054   0.00000   0.00078   0.00082  -0.85997
   D13        2.48578  -0.01541   0.00000  -0.02502  -0.02544   2.46034
   D14       -1.70301   0.01920   0.00000   0.03138   0.03180  -1.67120
   D15        0.91499  -0.01351   0.00000  -0.02210  -0.02251   0.89247
   D16        3.00938   0.02110   0.00000   0.03431   0.03473   3.04411
   D17       -0.65581  -0.01657   0.00000  -0.02701  -0.02742  -0.68323
   D18        1.43858   0.01804   0.00000   0.02939   0.02982   1.46841
   D19       -2.22661  -0.02032   0.00000  -0.03227  -0.03267  -2.25927
   D20       -0.13221   0.01429   0.00000   0.02413   0.02458  -0.10764
   D21       -2.52842  -0.03060   0.00000  -0.05105  -0.05135  -2.57976
   D22       -0.43402  -0.00250   0.00000  -0.00435  -0.00447  -0.43849
   D23       -0.43402   0.00178   0.00000   0.00284   0.00293  -0.43109
   D24        1.66037   0.02988   0.00000   0.04954   0.04981   1.71019
   D25       -0.98912  -0.01642   0.00000  -0.02619  -0.02658  -1.01570
   D26        1.10528   0.01618   0.00000   0.02689   0.02731   1.13259
   D27       -2.55991  -0.01725   0.00000  -0.02772  -0.02809  -2.58801
   D28       -0.46552   0.01534   0.00000   0.02537   0.02580  -0.43972
   D29        2.15247  -0.01578   0.00000  -0.02489  -0.02530   2.12718
   D30       -2.03632   0.01681   0.00000   0.02819   0.02860  -2.00772
   D31        0.58168  -0.01107   0.00000  -0.01847  -0.01890   0.56278
   D32        2.67607   0.02152   0.00000   0.03461   0.03499   2.71107
   D33        1.26899  -0.01732   0.00000  -0.02838  -0.02857   1.24042
   D34       -2.91980   0.01233   0.00000   0.01998   0.02019  -2.89961
   D35        2.83978  -0.01922   0.00000  -0.03130  -0.03152   2.80826
   D36       -1.34901   0.01043   0.00000   0.01706   0.01724  -1.33177
   D37       -1.87261  -0.01616   0.00000  -0.02639  -0.02660  -1.89920
   D38        0.22179   0.01349   0.00000   0.02197   0.02217   0.24395
   D39       -0.30181  -0.01241   0.00000  -0.02113  -0.02128  -0.32309
   D40        1.79259   0.01724   0.00000   0.02723   0.02748   1.82006
         Item               Value     Threshold  Converged?
 Maximum Force            0.236249     0.000450     NO 
 RMS     Force            0.045736     0.000300     NO 
 Maximum Displacement     0.215908     0.001800     NO 
 RMS     Displacement     0.059646     0.001200     NO 
 Predicted change in Energy=-1.184669D-01
 GradGradGradGradGradGradGradGradGradGradGradGradGradGradGradGradGradGrad

                          Input orientation:                          
 ---------------------------------------------------------------------
 Center     Atomic      Atomic             Coordinates (Angstroms)
 Number     Number       Type             X           Y           Z
 ---------------------------------------------------------------------
      1         78           0       -0.317023    0.340510    0.004252
      2          7           0       -0.306025   -1.681929    0.000387
      3          8           0        0.925670   -2.151464    0.182819
      4          8           0       -0.813046   -2.164399   -1.129236
      5          7           0        1.719988    0.345492   -0.001423
      6          8           0        2.208294    1.307631   -0.778833
      7          8           0        2.231069    0.467232    1.216393
      8         17           0       -0.325955    0.338380   -2.059537
      9          7           0       -0.309516    2.379521    0.012142
     10          7           0       -2.341917    0.354779    0.007371
     11          8           0       -2.825506   -0.045338    1.177507
     12          8           0       -2.806975    1.567011   -0.287861
     13          8           0        0.346608    2.858758    1.062594
     14          8           0        0.208201    2.895932   -1.094737
     15         35           0       -0.329092    0.318006    2.465814
 ---------------------------------------------------------------------
                    Distance matrix (angstroms):
                    1          2          3          4          5
     1  Pt   0.000000
     2  N    2.022473   0.000000
     3  O    2.790361   1.330721   0.000000
     4  O    2.793815   1.328870   2.178254   0.000000
     5  N    2.037025   2.866210   2.626723   3.740023   0.000000
     6  O    2.815274   3.983271   3.812511   4.615871   1.329858
     7  O    2.824556   3.540396   3.103210   4.657692   1.326311
     8  Cl   2.063810   2.885364   3.576877   2.714151   2.902028
     9  N    2.039039   4.061468   4.699430   4.712058   2.873386
    10  N    2.024946   2.879771   4.121791   3.158414   4.061925
    11  O    2.796049   3.226736   4.415484   3.723101   4.712127
    12  O    2.790967   4.110164   5.289730   4.313593   4.697611
    13  O    2.811061   4.708721   5.119731   5.601877   3.055293
    14  O    2.830869   4.735033   5.255770   5.162469   3.159997
    15  Br   2.461694   3.174682   3.589538   4.395558   3.207295
                    6          7          8          9         10
     6  O    0.000000
     7  O    2.165113   0.000000
     8  Cl   3.000344   4.157726   0.000000
     9  N    2.848500   3.400241   2.908329   0.000000
    10  N    4.714919   4.731446   2.887296   2.868842   0.000000
    11  O    5.567489   5.082636   4.107731   3.683507   1.327845
    12  O    5.045914   5.371609   3.286918   2.643384   1.331521
    13  O    3.043472   3.048646   4.068458   1.328013   3.822509
    14  O    2.573493   3.915597   2.785181   1.326609   3.764997
    15  Br   4.236203   2.852674   4.525398   3.204799   3.177540
                   11         12         13         14         15
    11  O    0.000000
    12  O    2.178834   0.000000
    13  O    4.302243   3.665710   0.000000
    14  O    4.797661   3.392399   2.162086   0.000000
    15  Br   2.832638   3.909302   2.980104   4.428534   0.000000
 Stoichiometry    BrClN4O8Pt(2-)
 Framework group  C1[X(BrClN4O8Pt)]
 Deg. of freedom    39
 Full point group                 C1      NOp   1
 Largest Abelian subgroup         C1      NOp   1
 Largest concise Abelian subgroup C1      NOp   1
                         Standard orientation:                         
 ---------------------------------------------------------------------
 Center     Atomic      Atomic             Coordinates (Angstroms)
 Number     Number       Type             X           Y           Z
 ---------------------------------------------------------------------
      1         78           0       -0.230043   -0.121302    0.023599
      2          7           0       -0.217179   -1.584052   -1.373037
      3          8           0       -0.186016   -1.070131   -2.600120
      4          8           0       -1.270173   -2.384105   -1.242599
      5          7           0       -0.490451    1.268244   -1.442969
      6          8           0       -1.331389    2.228084   -1.068736
      7          8           0        0.652757    1.817031   -1.831569
      8         17           0       -2.276413   -0.319496    0.203598
      9          7           0       -0.241378    1.366460    1.417915
     10          7           0        0.026140   -1.488846    1.494857
     11          8           0        1.251093   -2.000743    1.469914
     12          8           0       -0.219440   -0.951607    2.688177
     13          8           0        0.714453    2.258336    1.184337
     14          8           0       -1.408881    1.991947    1.492729
     15         35           0        2.213807    0.081423   -0.191893
 ---------------------------------------------------------------------
 Rotational constants (GHZ):      0.4516348      0.4066480      0.3896124
 Basis read from rwf:  (5D, 7F)
 Pseudo-potential data read from rwf file.
 There are   258 symmetry adapted cartesian basis functions of A   symmetry.
 There are   240 symmetry adapted basis functions of A   symmetry.
   240 basis functions,   460 primitive gaussians,   258 cartesian basis functions
    82 alpha electrons       82 beta electrons
       nuclear repulsion energy      2063.7776598894 Hartrees.
 NAtoms=   15 NActive=   15 NUniq=   15 SFac= 1.00D+00 NAtFMM=   60 NAOKFM=F Big=F
 Integral buffers will be    131072 words long.
 Raffenetti 2 integral format.
 Two-electron integral symmetry is turned on.
 ------------------------------------------------------------------------------
 Polarizable Continuum Model (PCM)
 =================================
 Model                : PCM (using non-symmetric T matrix).
 Atomic radii         : UFF (Universal Force Field).
 Polarization charges : Total charges.
 Charge compensation  : None.
 Solution method      : On-the-fly selection.
 Cavity type          : Scaled VdW (van der Waals Surface) (Alpha=1.100).
 Cavity algorithm     : GePol (No added spheres)
                        Default sphere list used, NSphG=   15.
                        Lebedev-Laikov grids with approx.  5.0 points / Ang**2.
                        Smoothing algorithm: Karplus/York (Gamma=1.0000).
                        Polarization charges: spherical gaussians, with
                                              point-specific exponents (IZeta= 3).
                        Self-potential: point-specific (ISelfS= 7).
                        Self-field    : sphere-specific E.n sum rule (ISelfD= 2).
 1st derivatives      : Analytical E(r).r(x)/FMM algorithm (CHGder, D1EAlg=3).
                        Cavity 1st derivative terms included.
 Solvent              : Water, Eps=  78.355300 Eps(inf)=   1.777849
 ------------------------------------------------------------------------------
 Spheres list:
 ISph  on   Nord     Re0    Alpha      Xe            Ye            Ze
    1  Pt      1    1.3770  1.100     -0.230043     -0.121302      0.023599
    2   N      2    1.8300  1.100     -0.217179     -1.584052     -1.373037
    3   O      3    1.7500  1.100     -0.186016     -1.070131     -2.600120
    4   O      4    1.7500  1.100     -1.270173     -2.384105     -1.242599
    5   N      5    1.8300  1.100     -0.490451      1.268244     -1.442969
    6   O      6    1.7500  1.100     -1.331389      2.228084     -1.068736
    7   O      7    1.7500  1.100      0.652757      1.817031     -1.831569
    8  Cl      8    1.9735  1.100     -2.276413     -0.319496      0.203598
    9   N      9    1.8300  1.100     -0.241378      1.366460      1.417915
   10   N     10    1.8300  1.100      0.026140     -1.488846      1.494857
   11   O     11    1.7500  1.100      1.251093     -2.000743      1.469914
   12   O     12    1.7500  1.100     -0.219440     -0.951607      2.688177
   13   O     13    1.7500  1.100      0.714453      2.258336      1.184337
   14   O     14    1.7500  1.100     -1.408881      1.991947      1.492729
   15  Br     15    2.0945  1.100      2.213807      0.081423     -0.191893
 ------------------------------------------------------------------------------
 One-electron integrals computed using PRISM.
   1 Symmetry operations used in ECPInt.
 ECPInt:  NShTT=    5050 NPrTT=   21966 LenC2=    4770 LenP2D=   14581.
 LDataN:  DoStor=T MaxTD1= 6 Len=  172
 NBasis=   240 RedAO= T EigKep=  2.74D-03  NBF=   240
 NBsUse=   240 1.00D-06 EigRej= -1.00D+00 NBFU=   240
 Defaulting to unpruned grid for atomic number  78.
 Initial guess from the checkpoint file:  "/home/scr/diego/Gau-7196.chk"
 B after Tr=     0.000000    0.000000    0.000000
         Rot=    0.999653    0.004184    0.002660   -0.025880 Ang=   3.02 deg.
 ExpMin= 2.90D-02 ExpMax= 1.13D+05 ExpMxC= 1.70D+04 IAcc=3 IRadAn=         5 AccDes= 0.00D+00
 Harris functional with IExCor=  402 and IRadAn=       5 diagonalized for initial guess.
 HarFok:  IExCor=  402 AccDes= 0.00D+00 IRadAn=         5 IDoV= 1 UseB2=F ITyADJ=14
 ICtDFT=  3500011 ScaDFX=  1.000000  1.000000  1.000000  1.000000
 Defaulting to unpruned grid for atomic number  78.
 Defaulting to unpruned grid for atomic number  78.
 Defaulting to unpruned grid for atomic number  78.
 Defaulting to unpruned grid for atomic number  78.
 Defaulting to unpruned grid for atomic number  78.
 Defaulting to unpruned grid for atomic number  78.
 Defaulting to unpruned grid for atomic number  78.
 Defaulting to unpruned grid for atomic number  78.
 FoFCou: FMM=F IPFlag=           0 FMFlag=      100000 FMFlg1=           0
         NFxFlg=           0 DoJE=T BraDBF=F KetDBF=T FulRan=T
         wScrn=  0.000000 ICntrl=     500 IOpCl=  0 I1Cent=   200000004 NGrid=           0
         NMat0=    1 NMatS0=      1 NMatT0=    0 NMatD0=    1 NMtDS0=    0 NMtDT0=    0
 Petite list used in FoFCou.
 Keep R1 ints in memory in canonical form, NReq=427106744.
 Requested convergence on RMS density matrix=1.00D-08 within 128 cycles.
 Requested convergence on MAX density matrix=1.00D-06.
 Requested convergence on             energy=1.00D-06.
 No special actions if energy rises.
 Defaulting to unpruned grid for atomic number  78.
 Defaulting to unpruned grid for atomic number  78.
 Defaulting to unpruned grid for atomic number  78.
 Defaulting to unpruned grid for atomic number  78.
 Defaulting to unpruned grid for atomic number  78.
 Defaulting to unpruned grid for atomic number  78.
 Defaulting to unpruned grid for atomic number  78.
 Defaulting to unpruned grid for atomic number  78.
 Inv3:  Mode=1 IEnd=     9082800.
 Iteration    1 A*A^-1 deviation from unit magnitude is 7.99D-15 for    415.
 Iteration    1 A*A^-1 deviation from orthogonality  is 4.86D-15 for   1536   1036.
 Iteration    1 A^-1*A deviation from unit magnitude is 6.88D-15 for   1266.
 Iteration    1 A^-1*A deviation from orthogonality  is 3.69D-11 for   1588   1585.
 Error on total polarization charges =  0.00924
 SCF Done:  E(RB3LYP) =  -3973.00812635     A.U. after   18 cycles
            NFock= 18  Conv=0.91D-08     -V/T= 2.0234
   1 Symmetry operations used in ECPInt.
 ECPInt:  NShTT=    5050 NPrTT=   21966 LenC2=    4770 LenP2D=   14581.
 LDataN:  DoStor=T MaxTD1= 7 Len=  274
 D1PCM: PCM CHGder 1st derivatives, ID1Alg=3 FixD1E=F DoIter=F DoCFld=F I1PDM=0.
 Calling FoFJK, ICntrl=      2127 FMM=F ISym2X=0 I1Cent= 0 IOpClX= 0 NMat=1 NMatS=1 NMatT=0.
 Defaulting to unpruned grid for atomic number  78.
 Defaulting to unpruned grid for atomic number  78.
 Defaulting to unpruned grid for atomic number  78.
 Defaulting to unpruned grid for atomic number  78.
 Defaulting to unpruned grid for atomic number  78.
 Defaulting to unpruned grid for atomic number  78.
 Defaulting to unpruned grid for atomic number  78.
 Defaulting to unpruned grid for atomic number  78.
 ***** Axes restored to original set *****
 -------------------------------------------------------------------
 Center     Atomic                   Forces (Hartrees/Bohr)
 Number     Number              X              Y              Z
 -------------------------------------------------------------------
      1       78          -0.039055164   -0.041247255    0.120610061
      2        7           0.099053528   -0.091544172   -0.127106732
      3        8          -0.077988897    0.024010744    0.026033315
      4        8          -0.007856512    0.024002884    0.089816519
      5        7           0.104396529    0.158851471    0.071892760
      6        8          -0.025650736   -0.084329234    0.013446402
      7        8          -0.025254795   -0.051537696   -0.076625223
      8       17          -0.001562196   -0.002351058   -0.164496506
      9        7           0.171665184    0.104879882   -0.016718645
     10        7          -0.093824259    0.106394462    0.121606683
     11        8           0.024643069   -0.014805731   -0.089771834
     12        8           0.024726316   -0.077189770   -0.019658453
     13        8          -0.073610497   -0.025709822   -0.042751543
     14        8          -0.074441376   -0.024708310    0.054635493
     15       35          -0.005240194   -0.004716395    0.039087702
 -------------------------------------------------------------------
 Cartesian Forces:  Max     0.171665184 RMS     0.076560661

 GradGradGradGradGradGradGradGradGradGradGradGradGradGradGradGradGradGrad
 Berny optimization.
 Using GEDIIS/GDIIS optimizer.
 FormGI is forming the generalized inverse of G from B-inverse, IUseBI=4.
 Internal  Forces:  Max     0.164501560 RMS     0.035346332
 Search for a local minimum.
 Step number   2 out of a maximum of   94
 All quantities printed in internal units (Hartrees-Bohrs-Radians)
 Mixed Optimization -- RFO/linear search
 Update second derivatives using D2CorX and points    1    2
 DE= -1.20D-01 DEPred=-1.18D-01 R= 1.01D+00
 TightC=F SS=  1.41D+00  RLast= 3.48D-01 DXNew= 5.0454D-01 1.0452D+00
 Trust test= 1.01D+00 RLast= 3.48D-01 DXMaxT set to 5.05D-01
 ITU=  1  0
 Use linear search instead of GDIIS.
 Linear search step of   0.598 exceeds DXMaxT=   0.505 but not scaled.
 Quartic linear search produced a step of  2.00000.
 Iteration  1 RMS(Cart)=  0.11323078 RMS(Int)=  0.01090653
 Iteration  2 RMS(Cart)=  0.01078717 RMS(Int)=  0.00338224
 Iteration  3 RMS(Cart)=  0.00005960 RMS(Int)=  0.00338194
 Iteration  4 RMS(Cart)=  0.00000052 RMS(Int)=  0.00338194
 Variable       Old X    -DE/DX   Delta X   Delta X   Delta X     New X
                                 (Linear)    (Quad)   (Total)
    R1        3.82192   0.04365   0.12273   0.00000   0.12273   3.94465
    R2        3.84942   0.05353   0.17773   0.00000   0.17773   4.02715
    R3        3.90004   0.16450   0.27896   0.00000   0.27896   4.17900
    R4        3.85323   0.05451   0.18534   0.00000   0.18534   4.03857
    R5        3.82659   0.04457   0.13208   0.00000   0.13208   3.95867
    R6        4.65193   0.03916   0.11979   0.00000   0.11979   4.77172
    R7        2.51470  -0.07710  -0.11066   0.00000  -0.11066   2.40404
    R8        2.51120  -0.08209  -0.11765   0.00000  -0.11765   2.39355
    R9        2.51307  -0.07830  -0.11392   0.00000  -0.11392   2.39914
   R10        2.50636  -0.08483  -0.12733   0.00000  -0.12733   2.37904
   R11        2.50958  -0.07948  -0.12089   0.00000  -0.12089   2.38869
   R12        2.50693  -0.08422  -0.12620   0.00000  -0.12620   2.38073
   R13        2.50926  -0.08362  -0.12153   0.00000  -0.12153   2.38773
   R14        2.51621  -0.07453  -0.10764   0.00000  -0.10764   2.40857
    A1        1.56780   0.00168  -0.00600   0.00000  -0.00599   1.56181
    A2        1.56788   0.00042  -0.00584   0.00000  -0.00581   1.56206
    A3        1.58328   0.01208   0.02498   0.00000   0.02531   1.60860
    A4        1.56359  -0.00395  -0.01441   0.00000  -0.01415   1.54944
    A5        1.57234   0.00084   0.00309   0.00000   0.00317   1.57551
    A6        1.56468  -0.01291  -0.01223   0.00000  -0.01257   1.55211
    A7        1.57851   0.00257   0.01542   0.00000   0.01541   1.59392
    A8        1.57571  -0.00065   0.00983   0.00000   0.00986   1.58558
    A9        1.56802  -0.00060  -0.00556   0.00000  -0.00531   1.56271
   A10        1.56743  -0.00085  -0.00674   0.00000  -0.00674   1.56069
   A11        1.57609   0.00431   0.01058   0.00000   0.01078   1.58687
   A12        1.56442  -0.00264  -0.01276   0.00000  -0.01249   1.55193
   A13        1.93650   0.01213   0.05174   0.00000   0.04710   1.98360
   A14        1.94187   0.01889   0.06246   0.00000   0.05789   1.99975
   A15        1.91940   0.00689   0.01752   0.00000   0.01038   1.92978
   A16        1.95043   0.01175   0.07960   0.00000   0.06994   2.02038
   A17        1.96384   0.02319   0.10642   0.00000   0.09698   2.06082
   A18        1.90589   0.00556  -0.00948   0.00000  -0.02320   1.88269
   A19        1.94523   0.01085   0.06919   0.00000   0.06001   2.00524
   A20        1.96869   0.02425   0.11611   0.00000   0.10728   2.07597
   A21        1.90360   0.00491  -0.01407   0.00000  -0.02709   1.87651
   A22        1.94273   0.01964   0.06419   0.00000   0.05979   2.00252
   A23        1.93407   0.00788   0.04687   0.00000   0.04239   1.97645
   A24        1.92040   0.00852   0.01953   0.00000   0.01263   1.93303
   A25        3.13248  -0.01123  -0.01823   0.00000  -0.01856   3.11392
   A26        3.15108   0.01376   0.01898   0.00000   0.01933   3.17041
   A27        3.13147  -0.00353  -0.02025   0.00000  -0.01996   3.11151
   A28        3.14358  -0.00026   0.00397   0.00000   0.00394   3.14751
   A29        3.14286  -0.00020   0.00253   0.00000   0.00237   3.14522
   A30        3.15088   0.00341   0.01857   0.00000   0.01883   3.16971
    D1        0.15085   0.01384   0.04505   0.00000   0.04605   0.19691
    D2       -1.99214  -0.01695  -0.05214   0.00000  -0.05312  -2.04526
    D3        1.72320   0.01468   0.04815   0.00000   0.04929   1.77250
    D4       -0.41979  -0.01611  -0.04904   0.00000  -0.04988  -0.46967
    D5       -2.99200   0.01404   0.04252   0.00000   0.04369  -2.94832
    D6        1.14819  -0.01675  -0.05467   0.00000  -0.05549   1.09270
    D7       -1.42768   0.01127   0.02958   0.00000   0.03046  -1.39721
    D8        2.71252  -0.01952  -0.06761   0.00000  -0.06871   2.64381
    D9       -0.86342  -0.00012  -0.00527   0.00000  -0.00534  -0.86876
   D10        1.28166   0.02841   0.09611   0.00000   0.09695   1.37861
   D11       -3.00505  -0.02842  -0.09974   0.00000  -0.10081  -3.10587
   D12       -0.85997   0.00011   0.00164   0.00000   0.00147  -0.85850
   D13        2.46034  -0.01532  -0.05088   0.00000  -0.05277   2.40757
   D14       -1.67120   0.01829   0.06361   0.00000   0.06553  -1.60567
   D15        0.89247  -0.01573  -0.04503   0.00000  -0.04692   0.84555
   D16        3.04411   0.01787   0.06946   0.00000   0.07138   3.11549
   D17       -0.68323  -0.01506  -0.05484   0.00000  -0.05670  -0.73994
   D18        1.46841   0.01855   0.05964   0.00000   0.06159   1.53000
   D19       -2.25927  -0.01926  -0.06533   0.00000  -0.06711  -2.32638
   D20       -0.10764   0.01435   0.04915   0.00000   0.05119  -0.05644
   D21       -2.57976  -0.02841  -0.10270   0.00000  -0.10375  -2.68352
   D22       -0.43849  -0.00143  -0.00893   0.00000  -0.00923  -0.44772
   D23       -0.43109   0.00045   0.00586   0.00000   0.00595  -0.42515
   D24        1.71019   0.02743   0.09962   0.00000   0.10047   1.81065
   D25       -1.01570  -0.01553  -0.05316   0.00000  -0.05493  -1.07063
   D26        1.13259   0.01717   0.05463   0.00000   0.05659   1.18918
   D27       -2.58801  -0.01631  -0.05619   0.00000  -0.05786  -2.64586
   D28       -0.43972   0.01639   0.05160   0.00000   0.05366  -0.38605
   D29        2.12718  -0.01570  -0.05059   0.00000  -0.05242   2.07476
   D30       -2.00772   0.01699   0.05719   0.00000   0.05910  -1.94861
   D31        0.56278  -0.01305  -0.03780   0.00000  -0.03978   0.52300
   D32        2.71107   0.01965   0.06999   0.00000   0.07174   2.78281
   D33        1.24042  -0.01755  -0.05714   0.00000  -0.05809   1.18233
   D34       -2.89961   0.01279   0.04039   0.00000   0.04147  -2.85814
   D35        2.80826  -0.01717  -0.06305   0.00000  -0.06418   2.74408
   D36       -1.33177   0.01316   0.03448   0.00000   0.03538  -1.29639
   D37       -1.89920  -0.01782  -0.05319   0.00000  -0.05424  -1.95344
   D38        0.24395   0.01252   0.04433   0.00000   0.04531   0.28927
   D39       -0.32309  -0.01349  -0.04257   0.00000  -0.04329  -0.36638
   D40        1.82006   0.01685   0.05496   0.00000   0.05627   1.87633
         Item               Value     Threshold  Converged?
 Maximum Force            0.164502     0.000450     NO 
 RMS     Force            0.035346     0.000300     NO 
 Maximum Displacement     0.380828     0.001800     NO 
 RMS     Displacement     0.111342     0.001200     NO 
 Predicted change in Energy=-1.444421D-01
 GradGradGradGradGradGradGradGradGradGradGradGradGradGradGradGradGradGrad

                          Input orientation:                          
 ---------------------------------------------------------------------
 Center     Atomic      Atomic             Coordinates (Angstroms)
 Number     Number       Type             X           Y           Z
 ---------------------------------------------------------------------
      1         78           0       -0.312089    0.344265    0.012511
      2          7           0       -0.277445   -1.742837    0.001675
      3          8           0        0.875456   -2.235267    0.217846
      4          8           0       -0.803135   -2.273144   -1.021421
      5          7           0        1.818854    0.360578   -0.004641
      6          8           0        2.357902    1.217612   -0.770627
      7          8           0        2.420013    0.398231    1.100846
      8         17           0       -0.340251    0.335962   -2.198723
      9          7           0       -0.288322    2.481125    0.035774
     10          7           0       -2.406437    0.388628    0.022076
     11          8           0       -2.939505   -0.040179    1.084376
     12          8           0       -2.886913    1.525080   -0.297501
     13          8           0        0.275610    2.995992    1.043090
     14          8           0        0.120678    3.097458   -0.984039
     15         35           0       -0.349643    0.276620    2.536409
 ---------------------------------------------------------------------
                    Distance matrix (angstroms):
                    1          2          3          4          5
     1  Pt   0.000000
     2  N    2.087418   0.000000
     3  O    2.847177   1.272163   0.000000
     4  O    2.856742   1.266610   2.086836   0.000000
     5  N    2.131075   2.969657   2.770904   3.852942   0.000000
     6  O    2.916315   4.038039   3.885498   4.715976   1.269573
     7  O    2.941388   3.615055   3.178153   4.693500   1.258932
     8  Cl   2.211429   3.027722   3.732153   2.899609   3.078366
     9  N    2.137118   4.224113   4.861263   4.897527   2.989740
    10  N    2.094839   3.012668   4.206421   3.277880   4.225469
    11  O    2.863565   3.340337   4.485891   3.739598   4.897810
    12  O    2.849587   4.192626   5.344270   4.392346   4.856550
    13  O    2.905019   4.883330   5.329814   5.761049   3.228738
    14  O    2.959809   4.955662   5.518349   5.449605   3.366532
    15  Br   2.525083   3.241650   3.631278   4.400580   3.341610
                    6          7          8          9         10
     6  O    0.000000
     7  O    2.043931   0.000000
     8  Cl   3.177546   4.302335   0.000000
     9  N    3.041258   3.578813   3.097967   0.000000
    10  N    4.900461   4.945549   3.033784   2.977439   0.000000
    11  O    5.752008   5.377444   4.204324   3.805957   1.263534
    12  O    5.275080   5.602555   3.393248   2.788865   1.274563
    13  O    3.284531   3.369000   4.238443   1.264038   3.877395
    14  O    2.929939   4.113333   3.051848   1.259828   3.838793
    15  Br   4.376386   3.121958   4.735513   3.334182   3.250356
                   11         12         13         14         15
    11  O    0.000000
    12  O    2.088633   0.000000
    13  O    4.422330   3.736618   0.000000
    14  O    4.846424   3.462558   2.035571   0.000000
    15  Br   2.985991   4.003428   3.164794   4.535623   0.000000
 Stoichiometry    BrClN4O8Pt(2-)
 Framework group  C1[X(BrClN4O8Pt)]
 Deg. of freedom    39
 Full point group                 C1      NOp   1
 Largest Abelian subgroup         C1      NOp   1
 Largest concise Abelian subgroup C1      NOp   1
                         Standard orientation:                         
 ---------------------------------------------------------------------
 Center     Atomic      Atomic             Coordinates (Angstroms)
 Number     Number       Type             X           Y           Z
 ---------------------------------------------------------------------
      1         78           0       -0.211538   -0.139105    0.026887
      2          7           0       -0.000614   -1.662421   -1.384613
      3          8           0        0.021092   -1.245334   -2.586264
      4          8           0       -0.825973   -2.614953   -1.259046
      5          7           0       -0.677791    1.224660   -1.542901
      6          8           0       -1.629155    2.031865   -1.308083
      7          8           0        0.265744    1.879193   -2.058884
      8         17           0       -2.352944   -0.651815    0.231653
      9          7           0       -0.428118    1.460898    1.427014
     10          7           0        0.233003   -1.436412    1.610468
     11          8           0        1.424052   -1.857751    1.630354
     12          8           0       -0.101049   -0.972506    2.749639
     13          8           0        0.375566    2.422854    1.264147
     14          8           0       -1.572370    1.951341    1.620198
     15         35           0        2.255755    0.344750   -0.206329
 ---------------------------------------------------------------------
 Rotational constants (GHZ):      0.4155316      0.3793936      0.3686660
 Basis read from rwf:  (5D, 7F)
 Pseudo-potential data read from rwf file.
 There are   258 symmetry adapted cartesian basis functions of A   symmetry.
 There are   240 symmetry adapted basis functions of A   symmetry.
   240 basis functions,   460 primitive gaussians,   258 cartesian basis functions
    82 alpha electrons       82 beta electrons
       nuclear repulsion energy      2004.2894568895 Hartrees.
 NAtoms=   15 NActive=   15 NUniq=   15 SFac= 1.00D+00 NAtFMM=   60 NAOKFM=F Big=F
 Integral buffers will be    131072 words long.
 Raffenetti 2 integral format.
 Two-electron integral symmetry is turned on.
 ------------------------------------------------------------------------------
 Polarizable Continuum Model (PCM)
 =================================
 Model                : PCM (using non-symmetric T matrix).
 Atomic radii         : UFF (Universal Force Field).
 Polarization charges : Total charges.
 Charge compensation  : None.
 Solution method      : On-the-fly selection.
 Cavity type          : Scaled VdW (van der Waals Surface) (Alpha=1.100).
 Cavity algorithm     : GePol (No added spheres)
                        Default sphere list used, NSphG=   15.
                        Lebedev-Laikov grids with approx.  5.0 points / Ang**2.
                        Smoothing algorithm: Karplus/York (Gamma=1.0000).
                        Polarization charges: spherical gaussians, with
                                              point-specific exponents (IZeta= 3).
                        Self-potential: point-specific (ISelfS= 7).
                        Self-field    : sphere-specific E.n sum rule (ISelfD= 2).
 1st derivatives      : Analytical E(r).r(x)/FMM algorithm (CHGder, D1EAlg=3).
                        Cavity 1st derivative terms included.
 Solvent              : Water, Eps=  78.355300 Eps(inf)=   1.777849
 ------------------------------------------------------------------------------
 Spheres list:
 ISph  on   Nord     Re0    Alpha      Xe            Ye            Ze
    1  Pt      1    1.3770  1.100     -0.211538     -0.139105      0.026887
    2   N      2    1.8300  1.100     -0.000614     -1.662421     -1.384613
    3   O      3    1.7500  1.100      0.021092     -1.245334     -2.586264
    4   O      4    1.7500  1.100     -0.825973     -2.614953     -1.259046
    5   N      5    1.8300  1.100     -0.677791      1.224660     -1.542901
    6   O      6    1.7500  1.100     -1.629155      2.031865     -1.308083
    7   O      7    1.7500  1.100      0.265744      1.879193     -2.058884
    8  Cl      8    1.9735  1.100     -2.352944     -0.651815      0.231653
    9   N      9    1.8300  1.100     -0.428118      1.460898      1.427014
   10   N     10    1.8300  1.100      0.233003     -1.436412      1.610468
   11   O     11    1.7500  1.100      1.424052     -1.857751      1.630354
   12   O     12    1.7500  1.100     -0.101049     -0.972506      2.749639
   13   O     13    1.7500  1.100      0.375566      2.422854      1.264147
   14   O     14    1.7500  1.100     -1.572370      1.951341      1.620198
   15  Br     15    2.0945  1.100      2.255755      0.344750     -0.206329
 ------------------------------------------------------------------------------
 One-electron integrals computed using PRISM.
   1 Symmetry operations used in ECPInt.
[...]
   A16        2.04634   0.00001   0.00000   0.00015   0.00015   2.04649
   A17        2.08609  -0.00002   0.00000  -0.00018  -0.00018   2.08591
   A18        2.15074   0.00001   0.00000   0.00003   0.00003   2.15076
   A19        2.05028   0.00000   0.00000  -0.00013  -0.00013   2.05015
   A20        2.08215   0.00001   0.00000   0.00015   0.00015   2.08230
   A21        2.15064  -0.00001   0.00000  -0.00002  -0.00002   2.15062
   A22        2.05198   0.00001   0.00000   0.00004   0.00004   2.05201
   A23        2.08055   0.00000   0.00000  -0.00002  -0.00002   2.08053
   A24        2.15044  -0.00001   0.00000  -0.00001  -0.00001   2.15043
   A25        3.13817  -0.00001   0.00000  -0.00033  -0.00033   3.13785
   A26        3.13991  -0.00001   0.00000  -0.00020  -0.00020   3.13971
   A27        3.14070   0.00000   0.00000   0.00026   0.00026   3.14096
   A28        3.13541   0.00000   0.00000   0.00004   0.00004   3.13544
   A29        3.14716   0.00000   0.00000   0.00005   0.00005   3.14721
   A30        3.14174   0.00000   0.00000   0.00041   0.00041   3.14214
    D1        0.72324   0.00000   0.00000   0.00124   0.00124   0.72448
    D2       -2.41778   0.00000   0.00000   0.00127   0.00127  -2.41652
    D3        2.26538   0.00000   0.00000   0.00138   0.00138   2.26676
    D4       -0.87564   0.00000   0.00000   0.00140   0.00140  -0.87424
    D5       -2.42392   0.00000   0.00000   0.00119   0.00119  -2.42273
    D6        0.71824   0.00000   0.00000   0.00122   0.00122   0.71946
    D7       -0.87635   0.00000   0.00000   0.00097   0.00097  -0.87538
    D8        2.26581   0.00000   0.00000   0.00100   0.00100   2.26680
    D9        0.00799   0.00000   0.00000   0.00161   0.00161   0.00960
   D10        3.12987   0.00000   0.00000   0.00147   0.00147   3.13134
   D11       -3.12930   0.00000   0.00000   0.00173   0.00173  -3.12757
   D12       -0.00742   0.00000   0.00000   0.00159   0.00159  -0.00583
   D13        2.36383   0.00000   0.00000  -0.00068  -0.00068   2.36315
   D14       -0.78556   0.00000   0.00000  -0.00062  -0.00062  -0.78618
   D15        0.82590   0.00000   0.00000  -0.00081  -0.00081   0.82509
   D16       -2.32349   0.00000   0.00000  -0.00075  -0.00075  -2.32424
   D17       -0.77158   0.00000   0.00000  -0.00071  -0.00071  -0.77229
   D18        2.36222   0.00000   0.00000  -0.00066  -0.00066   2.36156
   D19       -2.31658   0.00000   0.00000  -0.00053  -0.00053  -2.31710
   D20        0.81722   0.00000   0.00000  -0.00047  -0.00047   0.81676
   D21        3.12116   0.00000   0.00000  -0.00229  -0.00229   3.11887
   D22        0.00363   0.00000   0.00000  -0.00226  -0.00226   0.00138
   D23       -0.02545   0.00000   0.00000  -0.00214  -0.00214  -0.02759
   D24        3.14021   0.00000   0.00000  -0.00211  -0.00211   3.13810
   D25       -0.71474   0.00000   0.00000   0.00037   0.00037  -0.71437
   D26        2.41087   0.00000   0.00000   0.00033   0.00033   2.41120
   D27       -2.25714   0.00000   0.00000   0.00024   0.00024  -2.25690
   D28        0.86847   0.00000   0.00000   0.00020   0.00020   0.86868
   D29        2.43244   0.00000   0.00000   0.00042   0.00042   2.43285
   D30       -0.72514   0.00000   0.00000   0.00038   0.00038  -0.72476
   D31        0.88459   0.00000   0.00000   0.00065   0.00065   0.88525
   D32       -2.27298   0.00000   0.00000   0.00061   0.00061  -2.27237
   D33        0.75970   0.00000   0.00000  -0.00153  -0.00153   0.75818
   D34       -2.36062   0.00000   0.00000  -0.00159  -0.00159  -2.36220
   D35        2.29791   0.00000   0.00000  -0.00139  -0.00139   2.29651
   D36       -0.82241   0.00000   0.00000  -0.00145  -0.00145  -0.82387
   D37       -2.38809   0.00000   0.00000  -0.00149  -0.00149  -2.38958
   D38        0.77477   0.00000   0.00000  -0.00155  -0.00155   0.77322
   D39       -0.84281   0.00000   0.00000  -0.00168  -0.00168  -0.84448
   D40        2.32006   0.00000   0.00000  -0.00174  -0.00174   2.31832
         Item               Value     Threshold  Converged?
 Maximum Force            0.000029     0.000450     YES
 RMS     Force            0.000009     0.000300     YES
 Maximum Displacement     0.002661     0.001800     NO 
 RMS     Displacement     0.000752     0.001200     YES
 Predicted change in Energy=-3.975358D-08
 GradGradGradGradGradGradGradGradGradGradGradGradGradGradGradGradGradGrad

 1\1\GINC-NEQC17\Freq\RB3LYP\Gen\Br1Cl1N4O8Pt1(2-)\DIEGO\18-Aug-2021\0\
 \#N Geom=AllCheck Guess=TCheck SCRF=Check GenChk RB3LYP/ChkBas Freq\\E
 strutura 61\\-2,1\Pt,-0.1841694198,0.4764302251,0.0514222307\N,-0.2559
 114785,-1.6624215846,-0.0389431241\O,0.5195946972,-2.3188009609,0.6321
 493836\O,-1.0898893122,-2.1617525687,-0.7769554398\N,1.9578793232,0.52
 21501691,0.0463857468\O,2.4976094016,1.3384907702,-0.6828323711\O,2.57
 60054038,-0.2448645216,0.7617527425\Cl,-0.1252876667,0.5007429843,-2.3
 68730637\N,-0.1051237534,2.616166463,0.1285576809\N,-2.3270671949,0.42
 75866682,0.0443974686\O,-2.8755793808,-0.400247246,0.7540338547\O,-2.9
 365200655,1.1994113706,-0.6731973108\O,0.7353134337,3.1228481593,0.854
 5915116\O,-0.8754695023,3.2658104023,-0.554607713\Br,-0.2466095255,0.4
 485724997,2.5996278564\\Version=EM64L-G09RevD.01\State=1-A\HF=-3973.33
 66224\RMSD=9.261e-09\RMSF=2.439e-05\ZeroPoint=0.049682\Thermal=0.06760
 59\Dipole=-0.0200592,-0.0142325,0.8613251\DipoleDeriv=0.977564,0.08866
 22,-0.2109034,0.0906297,0.9692655,0.2148279,-0.1851615,0.187145,1.2190
 145,1.3083894,-0.0129486,0.9253712,-0.0196117,2.4996994,0.1242268,0.85
 53127,0.0286031,1.2326777,-0.7224865,0.3708777,-0.3683744,0.4009702,-1
 .9255336,0.2570657,-0.3672849,0.3154091,-0.6431166,-0.7969211,-0.42353
 53,-0.5002773,-0.3706185,-1.7130436,-0.388866,-0.4577857,-0.4329128,-0
 .7475973,2.50956,0.0085654,-0.0841681,0.0333467,1.2720862,-0.9353766,0
 .0276422,-0.8591248,1.2631352,-1.7651992,-0.3725808,0.3583269,-0.43661
 26,-0.7760256,0.485941,0.3958726,0.4356241,-0.7293032,-1.8774455,0.388
 9393,-0.304267,0.3420225,-0.7043457,0.3867928,-0.3839833,0.400083,-0.6
 913399,-0.1656897,0.0046504,0.066028,0.0124827,-0.1622055,-0.0128404,0
 .0443809,-0.0030846,-1.3835667,1.3109353,-0.0050046,0.9161916,-0.00122
 37,2.5025793,-0.1066227,0.8524952,-0.0398403,1.2191381,2.5010183,0.016
 0272,0.141266,0.0259019,1.2900123,-0.92638,0.0912489,-0.8562121,1.2426
 86,-1.7718154,-0.3842441,0.2662201,-0.4430396,-0.7872104,0.4648066,0.3
 415741,0.4219663,-0.699457,-1.8732748,0.3840948,-0.3959087,0.34659,-0.
 7154215,0.4019524,-0.4254537,0.4082957,-0.7050627,-0.802826,-0.4373127
 ,-0.4828091,-0.3827566,-1.7182427,-0.2975064,-0.4450461,-0.3818035,-0.
 7201685,-0.7184352,0.3623705,-0.3831991,0.3859615,-1.9197864,0.3505687
 ,-0.3779096,0.3687656,-0.6614506,-0.1133737,0.0114386,0.0565032,0.0159
 575,-0.1118279,-0.0185899,0.0340981,0.0070862,-1.195589\Polar=204.7297
 889,4.1140837,203.6442455,14.1433343,-14.3766653,216.1888433\PG=C01 [X
 (Br1Cl1N4O8Pt1)]\NImag=0\\0.24140819,0.00048017,0.24110303,0.02054342,
 -0.02461021,0.34899434,-0.04617355,-0.00073143,0.01138374,0.56986010,-
 0.00047927,-0.06763074,-0.00029324,-0.02728216,0.57951285,0.01131416,-
 0.00020335,-0.05333913,0.37510500,-0.01886232,0.47132936,0.00359003,0.
 00173625,-0.01000361,-0.25419974,0.17242808,-0.18030252,0.32981047,0.0
 1867777,-0.00134163,0.01569831,0.17613251,-0.28988843,0.15093138,-0.19
 184103,0.25238473,-0.00944193,0.00091516,0.00561643,-0.18098759,0.1475
 3375,-0.20265921,0.26865400,-0.16501199,0.25338397,0.00015784,-0.00170
 080,-0.01119768,-0.27942755,-0.14467319,-0.20588410,-0.07507429,0.0033
 6625,-0.08070134,0.35641465,-0.01778673,-0.00026795,-0.01517560,-0.148
 96845,-0.22486300,-0.13281118,0.01873507,0.05332770,0.01759538,0.14500
 967,0.18591212,-0.01158340,-0.00070052,0.00378829,-0.20573619,-0.12838
 745,-0.22933730,-0.08052657,0.00377386,-0.05336448,0.29302543,0.129085
 01,0.28182143,-0.06713936,0.00049714,0.00018990,-0.00013741,-0.0219555
 8,0.00207419,-0.00507460,0.00660281,-0.00321194,0.00096444,0.00653081,
 0.00093385,0.57619013,-0.00038799,-0.04635517,-0.01137442,-0.00899864,
 0.00031022,-0.00429015,0.00571488,0.00114087,0.00249679,0.00170802,-0.
 00054989,0.00154133,-0.00958928,0.55652434,-0.00043961,-0.01126986,-0.
 05273564,0.00454808,-0.00334575,0.00552699,-0.00563026,0.00094189,-0.0
 0322387,-0.00137019,0.00078527,-0.00173676,0.02005814,-0.37838163,0.48
 728292,-0.00119967,-0.01815037,0.01528375,-0.00040930,0.00658318,-0.00
 040267,0.00067280,-0.00238067,0.00085606,0.00004367,-0.00214029,-0.000
 38980,-0.23867876,-0.15602102,0.13726720,0.20071162,-0.00205222,0.0008
 3960,0.01088090,0.00166581,0.00088574,0.00127416,-0.00193199,-0.000575
 49,-0.00068576,-0.00020823,0.00006136,-0.00050627,-0.15214010,-0.26943
 101,0.19913961,0.15723094,0.34372401,0.00069237,0.01080390,0.00404249,
 -0.00164382,-0.00049197,-0.00178034,0.00219297,0.00026494,0.00093842,0
 .00055230,0.00023672,0.00087987,0.13267273,0.19868575,-0.22481785,-0.1
 3860178,-0.28700266,0.28155634,-0.00056112,0.01789299,-0.01624925,0.00
 104243,0.00647962,-0.00057231,-0.00084611,-0.00572729,0.00080266,-0.00
 042730,-0.00221156,-0.00028695,-0.27341905,0.16501683,-0.15607712,0.05
 386476,-0.00166578,0.00225598,0.23353345,0.00160142,0.00397192,0.01014
 624,0.00596752,-0.00550159,0.00539004,-0.00890668,-0.00097753,-0.00359
 878,-0.00207709,0.00083840,-0.00216346,0.16138308,-0.25037618,0.190470
 50,0.01337066,-0.07219284,0.08159313,-0.17457322,0.32303116,-0.0008688
 6,0.01026120,0.00438419,-0.00211888,0.00352775,-0.00282997,0.00330185,
 -0.00130455,0.00134793,0.00060703,-0.00097860,0.00075206,-0.15259128,0
 .19070476,-0.22377615,-0.01185270,0.08147571,-0.05738279,0.16540285,-0
 .27994189,0.27943693,-0.01004545,0.00032518,0.00082552,-0.00121255,-0.
 00076832,-0.00165040,0.00064473,0.00000577,0.00058229,0.00052594,-0.00
 144279,0.00192316,-0.00569317,-0.00398097,-0.00150730,-0.00124677,0.00
 161359,-0.00457529,0.00083490,0.00098700,-0.00010740,0.01702600,0.0001
 7541,-0.01012399,0.00209880,-0.00441034,-0.00574576,0.00130436,0.00104
 143,0.00079600,0.00008104,0.00127104,0.00000650,0.00453238,-0.00086527
 ,-0.00110495,0.00174745,-0.00089213,-0.00003875,-0.00165239,0.00012630
 ,0.00059399,-0.00054755,0.00066015,0.01636739,0.00069780,0.00224415,-0
 .09293516,0.00067736,0.00214199,-0.00047117,0.00020956,0.00022381,0.00
 013459,-0.00009234,0.00118421,-0.00045247,-0.00237975,-0.00080965,-0.0
 0056073,-0.00134392,0.00041097,-0.00125430,-0.00017857,-0.00014193,0.0
 0007919,-0.00052355,-0.00252770,0.10321381,-0.04603972,-0.00177364,0.0
 1111543,0.02039587,-0.00052924,-0.00369648,-0.00282729,-0.00290449,0.0
 0167367,-0.00188479,0.00370105,0.00237591,-0.00140080,0.00904234,-0.00
 385702,-0.00224188,-0.00388286,0.00092820,-0.00068657,-0.00082543,0.00
 123841,-0.00085741,0.00301641,0.00007964,0.57009693,-0.00022797,-0.067
 28808,-0.00136122,-0.00074989,0.00684841,-0.00031223,-0.00179450,0.008
 55882,-0.00172106,0.00263190,0.00694177,0.00268669,0.02357991,-0.00176
 847,-0.00210411,-0.00734812,-0.00466800,0.00217555,-0.00721986,0.00130
 452,-0.00105919,0.00055077,-0.00474943,-0.00092532,-0.02085952,0.57881
 715,0.01121881,0.00092925,-0.05358194,-0.00374493,-0.00037057,0.020381
 24,0.00189871,-0.00246627,-0.00285257,0.00201682,0.00266958,-0.0025405
 6,0.00287491,0.00386416,-0.00322333,-0.00077812,-0.00507862,0.00060788
 ,-0.00090492,-0.00022560,0.00101499,-0.00125611,-0.00151842,0.00041913
 ,0.37507315,-0.02456156,0.47054838,-0.06664131,0.00059205,0.00123392,-
 0.00128752,0.02346194,0.00319684,0.00125061,-0.00732391,0.00052733,-0.
 00523549,-0.00724044,-0.00243185,0.00676156,-0.00092237,-0.00037875,0.
 00733147,0.00270439,-0.00229331,0.00826593,-0.00166727,0.00236282,-0.0
 0491145,0.00063386,0.00089830,-0.00014265,-0.02177902,0.00224109,0.575
 29399,-0.00116228,-0.04595048,-0.01126339,0.00919255,-0.00181900,0.004
 01274,-0.00103171,-0.00045104,-0.00140745,-0.00385549,-0.00241363,-0.0
 0101244,-0.00073367,0.02046449,0.00366921,0.00373998,-0.00198327,-0.00
 219856,-0.00279489,-0.00291297,-0.00180012,0.00303665,-0.00104839,-0.0
 0000786,-0.00906944,0.00044863,-0.00429585,-0.00374138,0.56471449,-0.0
 0148496,-0.01113062,-0.05339095,-0.00381043,-0.00184444,-0.00317732,0.
 00038134,0.00047076,0.00114765,0.00527865,0.00035821,0.00064217,-0.000
 34280,0.00370399,0.02037471,-0.00218555,-0.00181948,-0.00276050,0.0031
 0960,-0.00206060,-0.00255239,0.00071020,0.00106621,0.00074721,0.004507
 51,-0.00340328,0.00573249,0.02328035,-0.37732147,0.47950268,-0.0008530
 8,-0.01839388,0.01418081,-0.00219905,-0.00735709,-0.00103760,-0.000024
 59,0.00306531,0.00030009,0.00190990,0.00420923,0.00222499,0.00724625,0
 .00378916,-0.00233402,-0.00923953,-0.00421504,0.00366055,-0.01220090,0
 .00302816,-0.00364069,0.00071267,-0.00004861,0.00027534,-0.00042365,0.
 00652165,-0.00046687,-0.24183775,-0.16120633,0.13456068,0.20125299,-0.
 00162422,0.00043268,0.01045945,-0.00400390,-0.00461474,-0.00523432,0.0
 0083941,0.00090664,0.00154712,0.00721283,0.00122881,0.00026702,0.00268
 036,-0.00195789,-0.00186927,-0.00426045,-0.00130526,0.00183372,-0.0046
 1498,0.00197729,-0.00124265,-0.00080239,0.00048451,-0.00013412,0.00169
 948,0.00086515,0.00130821,-0.15686848,-0.27551288,0.19650811,0.1631751
 2,0.35074750,0.00075385,0.01054294,0.00485492,0.00084663,0.00193540,0.
 00051878,0.00040611,-0.00101283,-0.00000079,-0.00016121,-0.00189903,-0
 .00155727,-0.00206490,-0.00208904,-0.00271555,0.00345078,0.00170085,-0
 .00074090,0.00382062,-0.00076553,0.00200930,0.00004066,-0.00039694,0.0
 0012477,-0.00165217,-0.00036858,-0.00185143,0.12904338,0.19504923,-0.2
 1495393,-0.13691871,-0.28317830,0.26824297,-0.00077882,0.01798982,-0.0
 1701572,-0.00073599,-0.00725358,-0.00106595,0.00017691,0.00290336,-0.0
 0007367,0.00111970,0.00294140,0.00127099,0.00842796,-0.00285046,0.0028
 4074,-0.01231955,-0.00455259,0.00412402,-0.01079676,0.00343151,-0.0037
 5034,0.00077538,0.00100428,0.00047568,0.00113602,0.00641573,-0.0006156
 1,-0.26953691,0.16301596,-0.15491670,0.05383167,-0.00237248,0.00364859
 ,0.22879111,0.00195511,0.00384124,0.01047539,-0.00083092,0.00136399,-0
 .00019790,-0.00031566,0.00013890,-0.00007368,0.00075657,0.00003214,-0.
 00045581,-0.00177815,-0.00287152,-0.00199499,0.00309368,0.00196905,-0.
 00085303,0.00344504,-0.00042327,0.00141249,-0.00148987,0.00059272,-0.0
 0004004,0.00593368,-0.00551487,0.00542129,0.15975090,-0.25300073,0.191
 90178,0.01274585,-0.07410242,0.08192797,-0.17330434,0.32697478,-0.0007
 7044,0.01040665,0.00405864,0.00118951,-0.00121838,0.00100263,0.0000537
 8,0.00039209,-0.00036786,-0.00133889,-0.00001485,0.00011110,0.00255634
 ,-0.00191193,-0.00266754,-0.00380713,-0.00126989,0.00216143,-0.0039194
 1,0.00148241,-0.00072744,0.00298882,-0.00084194,0.00008465,-0.00219510
 ,0.00368655,-0.00296546,-0.15295347,0.19304649,-0.22519093,-0.01019812
 ,0.08102355,-0.05567996,0.16418150,-0.28196246,0.27797374,-0.00012073,
 -0.00122180,-0.01071437,-0.00191835,0.00262573,0.00211253,0.00201582,-
 0.00485946,0.00099928,-0.00141115,-0.00425447,-0.00208167,-0.00508670,
 -0.00368773,0.00529938,0.00205238,0.00710844,-0.00039858,0.00113060,0.
 00070166,-0.00139037,0.00046361,-0.00068171,0.00013601,-0.28224770,-0.
 14814093,-0.20375699,0.00098925,0.00170531,-0.00133420,0.00004084,-0.0
 0021163,0.00055413,-0.00047232,-0.00208885,0.00064752,0.35893909,-0.01
 787612,-0.00000054,-0.01419767,0.00361486,0.00683700,0.00287865,0.0030
 0429,-0.01213676,0.00280465,-0.00416715,-0.00869960,-0.00396564,-0.007
 45185,-0.00251217,0.00081321,0.00420945,0.00138607,-0.00196060,0.00294
 687,0.00004691,-0.00008500,-0.00001914,0.00079942,-0.00029561,-0.15301
 964,-0.22720436,-0.13127167,0.00643696,-0.00061661,0.00084807,-0.00209
 987,0.00007232,0.00017832,-0.00220009,0.00084239,-0.00100909,0.1490267
 1,0.18740601,-0.01134375,-0.00083605,0.00444041,0.00223125,0.00245496,
 -0.00245573,0.00091981,-0.00447520,0.00188896,-0.00193485,-0.00377103,
 -0.00105647,-0.00207775,-0.00092674,0.00052278,0.00198633,0.00023500,-
 0.00148524,0.00117209,-0.00047016,0.00009061,0.00038055,0.00013078,0.0
 0010910,-0.20255668,-0.12553333,-0.22267593,0.00079512,0.00157451,-0.0
 0180925,-0.00032619,-0.00052366,0.00091821,-0.00027320,-0.00217536,0.0
 0080585,0.29044297,0.12729506,0.27470350,0.00378527,0.00214886,-0.0102
 1610,-0.00281001,-0.00181547,0.00181945,-0.00043503,0.00349846,-0.0011
 9820,0.00195710,0.00295201,0.00095644,0.00127830,-0.00095967,0.0003290
 4,0.00001432,0.00081041,0.00037596,0.00017133,-0.00032197,0.00006406,0
 .00018242,-0.00096290,0.00034932,-0.25194713,0.16907125,-0.18235251,-0
 .00502254,0.00585097,-0.00563301,0.00065560,-0.00200345,0.00219945,-0.
 00037786,-0.00857884,0.00363546,-0.07517850,0.01841945,-0.08103386,0.3
 2718847,0.01853744,-0.00165836,0.01676948,-0.00300811,0.00860532,-0.00
 220513,0.00356860,-0.01129880,0.00314095,-0.00477216,-0.01224128,-0.00
 475754,-0.00735056,-0.00057325,0.00066099,0.00299904,0.00095455,-0.001
 10523,0.00286511,0.00019670,0.00031492,0.00138630,0.00032864,-0.000979
 46,0.17268359,-0.28724502,0.15355446,0.00655556,0.00101141,0.00110212,
 -0.00233982,-0.00052336,0.00018378,-0.00525103,-0.00034339,-0.00135131
 ,0.00285914,0.05361496,0.00236815,-0.18875759,0.24834957,-0.00960512,0
 .00073576,0.00507816,0.00180485,-0.00195861,-0.00293703,-0.00132032,0.
 00341164,-0.00033363,0.00108183,0.00307429,0.00207325,0.00076072,-0.00
 130279,0.00114856,0.00020356,0.00142710,-0.00000273,-0.00014625,-0.000
 09138,-0.00036796,0.00149757,-0.00324872,-0.00100045,-0.18371864,0.151
 01505,-0.20836421,-0.00340994,0.00261564,-0.00337165,0.00089357,-0.000
 74625,0.00099319,0.00142046,-0.00323580,0.00144184,-0.08044749,0.01628
 331,-0.05354556,0.27050340,-0.16799599,0.25917133,-0.00938851,0.000309
 45,0.00064026,-0.00078737,0.00053537,-0.00101015,0.00032030,0.00078462
 ,0.00121931,0.00036732,-0.00003450,0.00032567,-0.00423879,0.00212691,0
 .00125170,0.00064443,-0.00048478,0.00005769,0.00009443,-0.00209938,0.0
 0334351,0.00280114,-0.00006793,0.00071912,-0.00092923,-0.00065140,-0.0
 0144743,-0.00527719,-0.00294622,-0.00212068,0.00112863,0.00115478,-0.0
 0396722,0.00075945,0.00070581,-0.00007037,0.00080386,-0.00082473,0.001
 61815,0.00053824,0.00002449,0.00048182,0.01316329,0.00016948,-0.009571
 52,0.00174717,0.00241058,-0.00430028,-0.00167475,-0.00124644,-0.000583
 98,-0.00361613,-0.00050218,0.00068654,0.00006284,0.00059035,-0.0009394
 3,0.00073749,-0.00003388,0.00037426,-0.00032928,0.00003482,0.00042351,
 -0.00073728,-0.00006194,0.00284211,-0.00034345,-0.00321229,-0.00534622
 ,0.00204162,-0.00059278,-0.00093001,0.00162064,-0.00087381,0.00130164,
 -0.00180823,0.00008252,0.00050101,-0.00045789,0.00111958,0.00016495,0.
 00465307,0.00064848,0.00082232,0.00001675,0.00146751,0.01455510,0.0003
 1765,0.00191159,-0.07927505,0.00025542,-0.00082113,0.00022820,-0.00023
 484,-0.00183783,-0.00165553,0.00011855,-0.00033838,-0.00002285,0.00054
 763,0.00008957,0.00060146,0.00031400,-0.00018162,0.00003823,0.00177098
 ,0.00037700,-0.00147849,0.00067129,-0.00022735,-0.00823816,0.00068418,
 0.00178604,-0.00064868,-0.00211182,-0.00066067,-0.00094000,-0.00117382
 ,-0.00001862,-0.00016230,-0.00025079,-0.00014986,-0.00004068,-0.000068
 15,0.00168401,-0.00045124,0.00020109,0.00029981,0.00001690,-0.00104137
 ,-0.00191256,0.09202819\\-0.00000379,-0.00001100,-0.00002625,0.0000136
 7,-0.00000557,0.00004812,-0.00001768,0.00000065,0.00001835,-0.00003673
 ,0.00000080,0.00003756,0.00001424,-0.00003140,-0.00001136,-0.00000963,
 -0.00004011,-0.00002770,0.00000282,0.00001818,-0.00004430,-0.00002210,
 -0.00003458,0.00000007,0.00001817,0.00000836,-0.00001472,-0.00000240,0
 .00002042,0.00002807,0.00000562,0.00001666,0.00005458,-0.00001363,0.00
 002147,0.00000707,0.00002804,0.00000427,-0.00004321,-0.00000700,0.0000
 0041,-0.00003993,0.00003040,0.00003145,0.00001365\\\@


 A BIRD IN THE HAND IS SAFER THAN ONE OVERHEAD.

                       -- NEWTON'S SEVENTH LAW
 Job cpu time:       0 days  0 hours 31 minutes 10.4 seconds.
 File lengths (MBytes):  RWF=    200 Int=      0 D2E=      0 Chk=     10 Scr=      1
 Normal termination of Gaussian 09 at Wed Aug 18 13:34:29 2021.
