 Entering Gaussian System, Link 0=g09
 Input=estrutura63_D2O.com
 Output=estrutura63_D2O.log
 Initial command:
 /home/scr/programs/g09/l1.exe "/home/scr/diego/Gau-12272.inp" -scrdir="/home/scr/diego/"
 Entering Link 1 = /home/scr/programs/g09/l1.exe PID=     12274.
  
 Copyright (c) 1988,1990,1992,1993,1995,1998,2003,2009,2013,
            Gaussian, Inc.  All Rights Reserved.
  
 This is part of the Gaussian(R) 09 program.  It is based on
 the Gaussian(R) 03 system (copyright 2003, Gaussian, Inc.),
 the Gaussian(R) 98 system (copyright 1998, Gaussian, Inc.),
 the Gaussian(R) 94 system (copyright 1995, Gaussian, Inc.),
 the Gaussian 92(TM) system (copyright 1992, Gaussian, Inc.),
 the Gaussian 90(TM) system (copyright 1990, Gaussian, Inc.),
 the Gaussian 88(TM) system (copyright 1988, Gaussian, Inc.),
 the Gaussian 86(TM) system (copyright 1986, Carnegie Mellon
 University), and the Gaussian 82(TM) system (copyright 1983,
 Carnegie Mellon University). Gaussian is a federally registered
 trademark of Gaussian, Inc.
  
 This software contains proprietary and confidential information,
 including trade secrets, belonging to Gaussian, Inc.
  
 This software is provided under written license and may be
 used, copied, transmitted, or stored only in accord with that
 written license.
  
 The following legend is applicable only to US Government
 contracts under FAR:
  
                    RESTRICTED RIGHTS LEGEND
  
 Use, reproduction and disclosure by the US Government is
 subject to restrictions as set forth in subparagraphs (a)
 and (c) of the Commercial Computer Software - Restricted
 Rights clause in FAR 52.227-19.
  
 Gaussian, Inc.
 340 Quinnipiac St., Bldg. 40, Wallingford CT 06492
  
  
 ---------------------------------------------------------------
 Warning -- This program may not be used in any manner that
 competes with the business of Gaussian, Inc. or will provide
 assistance to any competitor of Gaussian, Inc.  The licensee
 of this program is prohibited from giving any competitor of
 Gaussian, Inc. access to this program.  By using this program,
 the user acknowledges that Gaussian, Inc. is engaged in the
 business of creating and licensing software in the field of
 computational chemistry and represents and warrants to the
 licensee that it is not a competitor of Gaussian, Inc. and that
 it will not use this program in any manner prohibited above.
 ---------------------------------------------------------------
  

 Cite this work as:
 Gaussian 09, Revision D.01,
 M. J. Frisch, G. W. Trucks, H. B. Schlegel, G. E. Scuseria, 
 M. A. Robb, J. R. Cheeseman, G. Scalmani, V. Barone, B. Mennucci, 
 G. A. Petersson, H. Nakatsuji, M. Caricato, X. Li, H. P. Hratchian, 
 A. F. Izmaylov, J. Bloino, G. Zheng, J. L. Sonnenberg, M. Hada, 
 M. Ehara, K. Toyota, R. Fukuda, J. Hasegawa, M. Ishida, T. Nakajima, 
 Y. Honda, O. Kitao, H. Nakai, T. Vreven, J. A. Montgomery, Jr., 
 J. E. Peralta, F. Ogliaro, M. Bearpark, J. J. Heyd, E. Brothers, 
 K. N. Kudin, V. N. Staroverov, T. Keith, R. Kobayashi, J. Normand, 
 K. Raghavachari, A. Rendell, J. C. Burant, S. S. Iyengar, J. Tomasi, 
 M. Cossi, N. Rega, J. M. Millam, M. Klene, J. E. Knox, J. B. Cross, 
 V. Bakken, C. Adamo, J. Jaramillo, R. Gomperts, R. E. Stratmann, 
 O. Yazyev, A. J. Austin, R. Cammi, C. Pomelli, J. W. Ochterski, 
 R. L. Martin, K. Morokuma, V. G. Zakrzewski, G. A. Voth, 
 P. Salvador, J. J. Dannenberg, S. Dapprich, A. D. Daniels, 
 O. Farkas, J. B. Foresman, J. V. Ortiz, J. Cioslowski, 
 and D. J. Fox, Gaussian, Inc., Wallingford CT, 2013.
 
 ******************************************
 Gaussian 09:  EM64L-G09RevD.01 24-Apr-2013
                18-Aug-2021 
 ******************************************
 %mem=15gb
 %nproc=8
 Will use up to    8 processors via shared memory.
 ------------------------------------------------------------
 #b3lyp/gen pseudo=read opt freq=noraman scrf=(solvent=water)
 ------------------------------------------------------------
 1/14=-1,18=20,19=15,26=3,38=1/1,3;
 2/9=110,12=2,17=6,18=5,40=1/2;
 3/5=7,11=2,16=1,17=8,25=1,30=1,70=2201,71=1,72=1,74=-5/1,2,3;
 4//1;
 5/5=2,38=5,53=1/2;
 6/7=2,8=2,9=2,10=2,28=1/1;
 7//1,2,3,16;
 1/14=-1,18=20,19=15,26=3/3(2);
 2/9=110/2;
 99//99;
 2/9=110/2;
 3/5=7,6=1,11=2,16=1,17=8,25=1,30=1,70=2205,71=1,72=1,74=-5,82=7/1,2,3;
 4/5=5,16=3,69=1/1;
 5/5=2,38=5,53=1/2;
 7//1,2,3,16;
 1/14=-1,18=20,19=15,26=3/3(-5);
 2/9=110/2;
 6/7=2,8=2,9=2,10=2,19=2,28=1/1;
 99/9=1/99;
 ------------
 Estrutura 63
 ------------
 Symbolic Z-matrix:
 Charge = -2 Multiplicity = 1
 Pt                   -0.31955   0.33835   0. 
 N                     1.67045   0.33835   0. 
 O                     2.12378   1.35457  -0.7819 
 O                     2.12378   0.50738   1.27103 
 N                    -0.31955   2.32835   0. 
 N                    -2.30955   0.33835   0. 
 O                    -2.76288  -0.04279   1.22426 
 O                    -2.76288   1.58916  -0.28206 
 O                     0.38494   2.78168   1.07135 
 O                     0.25602   2.78168  -1.14578 
 Cl                   -0.31955   0.33835   2.28 
 Cl                   -0.31955  -1.65165   0. 
 N                    -0.31955   0.33835  -1.99 
 O                     0.52851  -0.62336  -2.44333 
 O                    -1.57644   0.08476  -2.44333 
 

 GradGradGradGradGradGradGradGradGradGradGradGradGradGradGradGradGradGrad
 Berny optimization.
 Initialization pass.
                           ----------------------------
                           !    Initial Parameters    !
                           ! (Angstroms and Degrees)  !
 --------------------------                            --------------------------
 ! Name  Definition              Value          Derivative Info.                !
 --------------------------------------------------------------------------------
 ! R1    R(1,2)                  1.99           estimate D2E/DX2                !
 ! R2    R(1,5)                  1.99           estimate D2E/DX2                !
 ! R3    R(1,6)                  1.99           estimate D2E/DX2                !
 ! R4    R(1,11)                 2.28           estimate D2E/DX2                !
 ! R5    R(1,12)                 1.99           estimate D2E/DX2                !
 ! R6    R(1,13)                 1.99           estimate D2E/DX2                !
 ! R7    R(2,3)                  1.36           estimate D2E/DX2                !
 ! R8    R(2,4)                  1.36           estimate D2E/DX2                !
 ! R9    R(5,9)                  1.36           estimate D2E/DX2                !
 ! R10   R(5,10)                 1.36           estimate D2E/DX2                !
 ! R11   R(6,7)                  1.36           estimate D2E/DX2                !
 ! R12   R(6,8)                  1.36           estimate D2E/DX2                !
 ! R13   R(13,14)                1.36           estimate D2E/DX2                !
 ! R14   R(13,15)                1.36           estimate D2E/DX2                !
 ! A1    A(2,1,5)               90.0            estimate D2E/DX2                !
 ! A2    A(2,1,11)              90.0            estimate D2E/DX2                !
 ! A3    A(2,1,12)              90.0            estimate D2E/DX2                !
 ! A4    A(2,1,13)              90.0            estimate D2E/DX2                !
 ! A5    A(5,1,6)               90.0            estimate D2E/DX2                !
 ! A6    A(5,1,11)              90.0            estimate D2E/DX2                !
 ! A7    A(5,1,13)              90.0            estimate D2E/DX2                !
 ! A8    A(6,1,11)              90.0            estimate D2E/DX2                !
 ! A9    A(6,1,12)              90.0            estimate D2E/DX2                !
 ! A10   A(6,1,13)              90.0            estimate D2E/DX2                !
 ! A11   A(11,1,12)             90.0            estimate D2E/DX2                !
 ! A12   A(12,1,13)             90.0            estimate D2E/DX2                !
 ! A13   A(1,2,3)              109.4712         estimate D2E/DX2                !
 ! A14   A(1,2,4)              109.4712         estimate D2E/DX2                !
 ! A15   A(3,2,4)              109.4713         estimate D2E/DX2                !
 ! A16   A(1,5,9)              109.4712         estimate D2E/DX2                !
 ! A17   A(1,5,10)             109.4712         estimate D2E/DX2                !
 ! A18   A(9,5,10)             109.4713         estimate D2E/DX2                !
 ! A19   A(1,6,7)              109.4712         estimate D2E/DX2                !
 ! A20   A(1,6,8)              109.4712         estimate D2E/DX2                !
 ! A21   A(7,6,8)              109.4713         estimate D2E/DX2                !
 ! A22   A(1,13,14)            109.4712         estimate D2E/DX2                !
 ! A23   A(1,13,15)            109.4712         estimate D2E/DX2                !
 ! A24   A(14,13,15)           109.4713         estimate D2E/DX2                !
 ! A25   L(2,1,6,5,-1)         180.0            estimate D2E/DX2                !
 ! A26   L(5,1,12,2,-1)        180.0            estimate D2E/DX2                !
 ! A27   L(11,1,13,2,-1)       180.0            estimate D2E/DX2                !
 ! A28   L(2,1,6,5,-2)         180.0            estimate D2E/DX2                !
 ! A29   L(5,1,12,2,-2)        180.0            estimate D2E/DX2                !
 ! A30   L(11,1,13,2,-2)       180.0            estimate D2E/DX2                !
 ! D1    D(5,1,2,3)            -37.5752         estimate D2E/DX2                !
 ! D2    D(5,1,2,4)             82.4248         estimate D2E/DX2                !
 ! D3    D(11,1,2,3)          -127.5752         estimate D2E/DX2                !
 ! D4    D(11,1,2,4)            -7.5752         estimate D2E/DX2                !
 ! D5    D(12,1,2,3)           142.4248         estimate D2E/DX2                !
 ! D6    D(12,1,2,4)           -97.5752         estimate D2E/DX2                !
 ! D7    D(13,1,2,3)            52.4248         estimate D2E/DX2                !
 ! D8    D(13,1,2,4)           172.4248         estimate D2E/DX2                !
 ! D9    D(3,2,6,7)           -144.8676         estimate D2E/DX2                !
 ! D10   D(3,2,6,8)            -24.8676         estimate D2E/DX2                !
 ! D11   D(4,2,6,7)            -24.8676         estimate D2E/DX2                !
 ! D12   D(4,2,6,8)             95.1324         estimate D2E/DX2                !
 ! D13   D(2,1,5,9)            -56.6723         estimate D2E/DX2                !
 ! D14   D(2,1,5,10)            63.3277         estimate D2E/DX2                !
 ! D15   D(6,1,5,9)            123.3277         estimate D2E/DX2                !
 ! D16   D(6,1,5,10)          -116.6723         estimate D2E/DX2                !
 ! D17   D(11,1,5,9)            33.3277         estimate D2E/DX2                !
 ! D18   D(11,1,5,10)          153.3277         estimate D2E/DX2                !
 ! D19   D(13,1,5,9)          -146.6723         estimate D2E/DX2                !
 ! D20   D(13,1,5,10)          -26.6723         estimate D2E/DX2                !
 ! D21   D(5,1,6,7)           -107.2924         estimate D2E/DX2                !
 ! D22   D(5,1,6,8)             12.7076         estimate D2E/DX2                !
 ! D23   D(11,1,6,7)           -17.2924         estimate D2E/DX2                !
 ! D24   D(11,1,6,8)           102.7076         estimate D2E/DX2                !
 ! D25   D(12,1,6,7)            72.7076         estimate D2E/DX2                !
 ! D26   D(12,1,6,8)          -167.2924         estimate D2E/DX2                !
 ! D27   D(13,1,6,7)           162.7076         estimate D2E/DX2                !
 ! D28   D(13,1,6,8)           -77.2924         estimate D2E/DX2                !
 ! D29   D(2,1,13,14)           48.5934         estimate D2E/DX2                !
 ! D30   D(2,1,13,15)          168.5934         estimate D2E/DX2                !
 ! D31   D(5,1,13,14)          138.5934         estimate D2E/DX2                !
 ! D32   D(5,1,13,15)         -101.4066         estimate D2E/DX2                !
 ! D33   D(6,1,13,14)         -131.4066         estimate D2E/DX2                !
 ! D34   D(6,1,13,15)          -11.4066         estimate D2E/DX2                !
 ! D35   D(12,1,13,14)         -41.4066         estimate D2E/DX2                !
 ! D36   D(12,1,13,15)          78.5934         estimate D2E/DX2                !
 --------------------------------------------------------------------------------
 Trust Radius=3.00D-01 FncErr=1.00D-07 GrdErr=1.00D-06
 Number of steps in this run=     90 maximum allowed number of steps=    100.
 GradGradGradGradGradGradGradGradGradGradGradGradGradGradGradGradGradGrad

                          Input orientation:                          
 ---------------------------------------------------------------------
 Center     Atomic      Atomic             Coordinates (Angstroms)
 Number     Number       Type             X           Y           Z
 ---------------------------------------------------------------------
      1         78           0       -0.319549    0.338346    0.000000
      2          7           0        1.670451    0.338346    0.000000
      3          8           0        2.123784    1.354574   -0.781901
      4          8           0        2.123784    0.507377    1.271030
      5          7           0       -0.319549    2.328346    0.000000
      6          7           0       -2.309549    0.338346    0.000000
      7          8           0       -2.762882   -0.042792    1.224264
      8          8           0       -2.762882    1.589159   -0.282057
      9          8           0        0.384937    2.781679    1.071349
     10          8           0        0.256023    2.781679   -1.145778
     11         17           0       -0.319549    0.338346    2.280000
     12         17           0       -0.319549   -1.651654    0.000000
     13          7           0       -0.319549    0.338346   -1.990000
     14          8           0        0.528510   -0.623364   -2.443333
     15          8           0       -1.576443    0.084760   -2.443333
 ---------------------------------------------------------------------
                    Distance matrix (angstroms):
                    1          2          3          4          5
     1  Pt   0.000000
     2  N    1.990000   0.000000
     3  O    2.759341   1.360000   0.000000
     4  O    2.759341   1.360000   2.220871   0.000000
     5  N    1.990000   2.814285   2.743989   3.301715   0.000000
     6  N    1.990000   3.980000   4.615033   4.615033   2.814285
     7  O    2.759341   4.615033   5.464141   4.917761   3.618148
     8  O    2.759341   4.615033   4.917761   5.240404   2.568235
     9  O    2.759341   2.961454   2.914576   2.869827   1.360000
    10  O    2.759341   3.046849   2.378564   3.808141   1.360000
    11  Cl   2.280000   3.026301   4.046954   2.648862   3.026301
    12  Cl   1.990000   2.814285   3.952044   3.499544   3.980000
    13  N    1.990000   2.814285   2.908969   4.078329   2.814285
    14  O    2.759341   2.863353   3.036033   4.197615   3.924496
    15  O    2.759341   4.071425   4.250231   5.259922   3.547300
                    6          7          8          9         10
     6  N    0.000000
     7  O    1.360000   0.000000
     8  O    1.360000   2.220871   0.000000
     9  O    3.791823   4.231995   3.628027   0.000000
    10  O    3.723552   4.765346   3.358854   2.220871   0.000000
    11  Cl   3.026301   2.688814   3.754803   2.815495   4.247012
    12  Cl   2.814285   3.171299   4.068452   4.615033   4.615033
    13  N    2.814285   4.055445   3.232874   3.979703   2.648371
    14  O    3.866438   4.962015   4.516595   4.895704   3.654068
    15  O    2.563518   3.856835   2.888246   4.844933   3.509267
                   11         12         13         14         15
    11  Cl   0.000000
    12  Cl   3.026301   0.000000
    13  N    4.270000   2.814285   0.000000
    14  O    4.894279   2.783246   1.360000   0.000000
    15  O    4.894279   3.250353   1.360000   2.220871   0.000000
 Stoichiometry    Cl2N4O8Pt(2-)
 Framework group  C1[X(Cl2N4O8Pt)]
 Deg. of freedom    39
 Full point group                 C1      NOp   1
 Largest Abelian subgroup         C1      NOp   1
 Largest concise Abelian subgroup C1      NOp   1
                         Standard orientation:                         
 ---------------------------------------------------------------------
 Center     Atomic      Atomic             Coordinates (Angstroms)
 Number     Number       Type             X           Y           Z
 ---------------------------------------------------------------------
      1         78           0       -0.077212   -0.014199   -0.106842
      2          7           0        1.698848    0.523644   -0.825476
      3          8           0        2.337480    1.307449    0.084139
      4          8           0        2.444463   -0.587260   -1.069507
      5          7           0        0.711212   -0.187381    1.712086
      6          7           0       -1.853272   -0.552043    0.611792
      7          8           0       -2.144906   -1.815274    0.200945
      8          8           0       -1.823120   -0.512971    1.970896
      9          8           0        1.750563   -1.063684    1.674109
     10          8           0        1.157470    1.027349    2.130278
     11         17           0        0.414383   -2.200360   -0.528072
     12         17           0       -0.865635    0.158982   -1.925769
     13          7           0       -0.506279    1.893897    0.260811
     14          8           0       -0.228159    2.641473   -0.840724
     15          8           0       -1.826261    2.010936    0.566672
 ---------------------------------------------------------------------
 Rotational constants (GHZ):      0.5356878      0.5155464      0.4607049
 General basis read from cards:  (5D, 7F)
 ======================================================================================================
                                       Pseudopotential Parameters
 ======================================================================================================
  Center     Atomic      Valence      Angular      Power
  Number     Number     Electrons     Momentum     of R      Exponent        Coefficient   SO-Coeffient
 ======================================================================================================
    1         78           18
                                      G and up 
                                                     1      728.9394056       -0.16192680    0.00000000
                                                     2      320.6567800    -1320.28738520    0.00000000
                                                     2       52.8680174     -298.31781350    0.00000000
                                                     2       12.0280128      -87.58370650    0.00000000
                                                     2        3.5238913       -8.14932740    0.00000000
                                      S - G
                                                     0      409.4437358        2.73342180    0.00000000
                                                     1      274.5419231       59.70243290    0.00000000
                                                     2      127.5658570      891.45895500    0.00000000
                                                     2       32.9036631      368.44676560    0.00000000
                                                     2        5.0593880      238.02630900    0.00000000
                                                     2        4.1506556     -107.05564540    0.00000000
                                      P - G
                                                     0      466.1728892        1.88785680    0.00000000
                                                     1      120.7888259       76.01386290    0.00000000
                                                     2       36.4118791      343.55111160    0.00000000
                                                     2        5.6985408      119.49117860    0.00000000
                                      D - G
                                                     0      249.5650763        2.93436780    0.00000000
                                                     1      126.6678585       59.33065710    0.00000000
                                                     2       63.1430586      452.44451940    0.00000000
                                                     2       17.9059470      210.47694790    0.00000000
                                                     2        4.2239373       58.62541120    0.00000000
                                      F - G
                                                     0      121.8158799        3.95342530    0.00000000
                                                     1       60.8757030       53.85551820    0.00000000
                                                     2       31.4767147      247.43051330    0.00000000
                                                     2        9.8811751      127.81879760    0.00000000
                                                     2        2.7319874       15.37720460    0.00000000
    2          7
                                   No pseudopotential on this center.
    3          8
                                   No pseudopotential on this center.
    4          8
                                   No pseudopotential on this center.
    5          7
                                   No pseudopotential on this center.
    6          7
                                   No pseudopotential on this center.
    7          8
                                   No pseudopotential on this center.
    8          8
                                   No pseudopotential on this center.
    9          8
                                   No pseudopotential on this center.
   10          8
                                   No pseudopotential on this center.
   11         17
                                   No pseudopotential on this center.
   12         17
                                   No pseudopotential on this center.
   13          7
                                   No pseudopotential on this center.
   14          8
                                   No pseudopotential on this center.
   15          8
                                   No pseudopotential on this center.
 ======================================================================================================
 There are   242 symmetry adapted cartesian basis functions of A   symmetry.
 There are   226 symmetry adapted basis functions of A   symmetry.
   226 basis functions,   417 primitive gaussians,   242 cartesian basis functions
    73 alpha electrons       73 beta electrons
       nuclear repulsion energy      1741.8623462321 Hartrees.
 NAtoms=   15 NActive=   15 NUniq=   15 SFac= 1.00D+00 NAtFMM=   60 NAOKFM=F Big=F
 Integral buffers will be    131072 words long.
 Raffenetti 2 integral format.
 Two-electron integral symmetry is turned on.
 ------------------------------------------------------------------------------
 Polarizable Continuum Model (PCM)
 =================================
 Model                : PCM (using non-symmetric T matrix).
 Atomic radii         : UFF (Universal Force Field).
 Polarization charges : Total charges.
 Charge compensation  : None.
 Solution method      : On-the-fly selection.
 Cavity type          : Scaled VdW (van der Waals Surface) (Alpha=1.100).
 Cavity algorithm     : GePol (No added spheres)
                        Default sphere list used, NSphG=   15.
                        Lebedev-Laikov grids with approx.  5.0 points / Ang**2.
                        Smoothing algorithm: Karplus/York (Gamma=1.0000).
                        Polarization charges: spherical gaussians, with
                                              point-specific exponents (IZeta= 3).
                        Self-potential: point-specific (ISelfS= 7).
                        Self-field    : sphere-specific E.n sum rule (ISelfD= 2).
 1st derivatives      : Analytical E(r).r(x)/FMM algorithm (CHGder, D1EAlg=3).
                        Cavity 1st derivative terms included.
 Solvent              : Water, Eps=  78.355300 Eps(inf)=   1.777849
 ------------------------------------------------------------------------------
 Spheres list:
 ISph  on   Nord     Re0    Alpha      Xe            Ye            Ze
    1  Pt      1    1.3770  1.100     -0.077212     -0.014199     -0.106842
    2   N      2    1.8300  1.100      1.698848      0.523644     -0.825476
    3   O      3    1.7500  1.100      2.337480      1.307449      0.084139
    4   O      4    1.7500  1.100      2.444463     -0.587260     -1.069507
    5   N      5    1.8300  1.100      0.711212     -0.187381      1.712086
    6   N      6    1.8300  1.100     -1.853272     -0.552043      0.611792
    7   O      7    1.7500  1.100     -2.144906     -1.815274      0.200945
    8   O      8    1.7500  1.100     -1.823120     -0.512971      1.970896
    9   O      9    1.7500  1.100      1.750563     -1.063684      1.674109
   10   O     10    1.7500  1.100      1.157470      1.027349      2.130278
   11  Cl     11    1.9735  1.100      0.414383     -2.200360     -0.528072
   12  Cl     12    1.9735  1.100     -0.865635      0.158982     -1.925769
   13   N     13    1.8300  1.100     -0.506279      1.893897      0.260811
   14   O     14    1.7500  1.100     -0.228159      2.641473     -0.840724
   15   O     15    1.7500  1.100     -1.826261      2.010936      0.566672
 ------------------------------------------------------------------------------
 One-electron integrals computed using PRISM.
   1 Symmetry operations used in ECPInt.
 ECPInt:  NShTT=    4656 NPrTT=   19519 LenC2=    4426 LenP2D=   13231.
 LDataN:  DoStor=T MaxTD1= 6 Len=  172
 NBasis=   226 RedAO= T EigKep=  2.34D-03  NBF=   226
 NBsUse=   226 1.00D-06 EigRej= -1.00D+00 NBFU=   226
 Defaulting to unpruned grid for atomic number  78.
 ExpMin= 2.90D-02 ExpMax= 1.04D+04 ExpMxC= 1.57D+03 IAcc=3 IRadAn=         5 AccDes= 0.00D+00
 Harris functional with IExCor=  402 and IRadAn=       5 diagonalized for initial guess.
 HarFok:  IExCor=  402 AccDes= 0.00D+00 IRadAn=         5 IDoV= 1 UseB2=F ITyADJ=14
 ICtDFT=  3500011 ScaDFX=  1.000000  1.000000  1.000000  1.000000
 Defaulting to unpruned grid for atomic number  78.
 Defaulting to unpruned grid for atomic number  78.
 Defaulting to unpruned grid for atomic number  78.
 Defaulting to unpruned grid for atomic number  78.
 Defaulting to unpruned grid for atomic number  78.
 Defaulting to unpruned grid for atomic number  78.
 Defaulting to unpruned grid for atomic number  78.
 Defaulting to unpruned grid for atomic number  78.
 FoFCou: FMM=F IPFlag=           0 FMFlag=      100000 FMFlg1=           0
         NFxFlg=           0 DoJE=T BraDBF=F KetDBF=T FulRan=T
         wScrn=  0.000000 ICntrl=     500 IOpCl=  0 I1Cent=   200000004 NGrid=           0
         NMat0=    1 NMatS0=      1 NMatT0=    0 NMatD0=    1 NMtDS0=    0 NMtDT0=    0
 Petite list used in FoFCou.
 Keep R1 ints in memory in canonical form, NReq=336372040.
 Requested convergence on RMS density matrix=1.00D-08 within 128 cycles.
 Requested convergence on MAX density matrix=1.00D-06.
 Requested convergence on             energy=1.00D-06.
 No special actions if energy rises.
 Defaulting to unpruned grid for atomic number  78.
 Defaulting to unpruned grid for atomic number  78.
 Defaulting to unpruned grid for atomic number  78.
 Defaulting to unpruned grid for atomic number  78.
 Defaulting to unpruned grid for atomic number  78.
 Defaulting to unpruned grid for atomic number  78.
 Defaulting to unpruned grid for atomic number  78.
 Defaulting to unpruned grid for atomic number  78.
 Inv3:  Mode=1 IEnd=     7951152.
 Iteration    1 A*A^-1 deviation from unit magnitude is 7.33D-15 for   1078.
 Iteration    1 A*A^-1 deviation from orthogonality  is 4.82D-15 for   1287     15.
 Iteration    1 A^-1*A deviation from unit magnitude is 7.55D-15 for    942.
 Iteration    1 A^-1*A deviation from orthogonality  is 9.22D-11 for    851    833.
 EnCoef did   100 forward-backward iterations
 EnCoef did   100 forward-backward iterations
 EnCoef did     2 forward-backward iterations
 EnCoef did     2 forward-backward iterations
 EnCoef did     4 forward-backward iterations
 EnCoef did     3 forward-backward iterations
 EnCoef did   100 forward-backward iterations
 EnCoef did     3 forward-backward iterations
 Error on total polarization charges =  0.00817
 SCF Done:  E(RB3LYP) =  -1859.09249085     A.U. after   28 cycles
            NFock= 28  Conv=0.77D-08     -V/T= 2.0500

 **********************************************************************

            Population analysis using the SCF density.

 **********************************************************************

 Orbital symmetries:
       Occupied  (A) (A) (A) (A) (A) (A) (A) (A) (A) (A) (A) (A)
                 (A) (A) (A) (A) (A) (A) (A) (A) (A) (A) (A) (A)
                 (A) (A) (A) (A) (A) (A) (A) (A) (A) (A) (A) (A)
                 (A) (A) (A) (A) (A) (A) (A) (A) (A) (A) (A) (A)
                 (A) (A) (A) (A) (A) (A) (A) (A) (A) (A) (A) (A)
                 (A) (A) (A) (A) (A) (A) (A) (A) (A) (A) (A) (A)
                 (A)
       Virtual   (A) (A) (A) (A) (A) (A) (A) (A) (A) (A) (A) (A)
                 (A) (A) (A) (A) (A) (A) (A) (A) (A) (A) (A) (A)
                 (A) (A) (A) (A) (A) (A) (A) (A) (A) (A) (A) (A)
                 (A) (A) (A) (A) (A) (A) (A) (A) (A) (A) (A) (A)
                 (A) (A) (A) (A) (A) (A) (A) (A) (A) (A) (A) (A)
                 (A) (A) (A) (A) (A) (A) (A) (A) (A) (A) (A) (A)
                 (A) (A) (A) (A) (A) (A) (A) (A) (A) (A) (A) (A)
                 (A) (A) (A) (A) (A) (A) (A) (A) (A) (A) (A) (A)
                 (A) (A) (A) (A) (A) (A) (A) (A) (A) (A) (A) (A)
                 (A) (A) (A) (A) (A) (A) (A) (A) (A) (A) (A) (A)
                 (A) (A) (A) (A) (A) (A) (A) (A) (A) (A) (A) (A)
                 (A) (A) (A) (A) (A) (A) (A) (A) (A) (A) (A) (A)
                 (A) (A) (A) (A) (A) (A) (A) (A) (A)
 The electronic state is 1-A.
 Alpha  occ. eigenvalues -- -101.46741-101.45095 -19.15453 -19.15121 -19.15074
 Alpha  occ. eigenvalues --  -19.14839 -19.14753 -19.14699 -19.14197 -19.13498
 Alpha  occ. eigenvalues --  -14.50113 -14.49898 -14.49803 -14.48227  -9.42769
 Alpha  occ. eigenvalues --   -9.40561  -7.19610  -7.18606  -7.18594  -7.17401
 Alpha  occ. eigenvalues --   -7.16497  -7.16459  -4.06104  -2.28306  -2.27603
 Alpha  occ. eigenvalues --   -2.27312  -1.10443  -1.09598  -1.09482  -1.08353
 Alpha  occ. eigenvalues --   -0.94080  -0.93784  -0.93358  -0.92405  -0.82557
 Alpha  occ. eigenvalues --   -0.76924  -0.68231  -0.65895  -0.64964  -0.63900
 Alpha  occ. eigenvalues --   -0.52106  -0.51366  -0.50794  -0.50161  -0.48965
 Alpha  occ. eigenvalues --   -0.48647  -0.47955  -0.46460  -0.45973  -0.45365
 Alpha  occ. eigenvalues --   -0.44976  -0.43115  -0.41238  -0.39443  -0.39138
 Alpha  occ. eigenvalues --   -0.37920  -0.37007  -0.30609  -0.29855  -0.29249
 Alpha  occ. eigenvalues --   -0.28921  -0.27855  -0.27560  -0.27135  -0.26895
 Alpha  occ. eigenvalues --   -0.26580  -0.26157  -0.25479  -0.25160  -0.24800
 Alpha  occ. eigenvalues --   -0.24756  -0.23802  -0.22828
 Alpha virt. eigenvalues --   -0.15534  -0.13136  -0.11230  -0.09705  -0.02880
 Alpha virt. eigenvalues --    0.00607   0.05764   0.06386   0.06716   0.17361
 Alpha virt. eigenvalues --    0.18002   0.18916   0.19678   0.19991   0.20237
 Alpha virt. eigenvalues --    0.20776   0.20919   0.21503   0.32455   0.33962
 Alpha virt. eigenvalues --    0.35350   0.45933   0.47407   0.48239   0.49101
 Alpha virt. eigenvalues --    0.55244   0.60500   0.64619   0.67913   0.68739
 Alpha virt. eigenvalues --    0.70337   0.71460   0.71837   0.74025   0.74897
 Alpha virt. eigenvalues --    0.75691   0.76661   0.78443   0.78818   0.79420
 Alpha virt. eigenvalues --    0.80734   0.81614   0.83101   0.84244   0.86666
 Alpha virt. eigenvalues --    0.88250   0.88950   0.90440   0.91388   0.92191
 Alpha virt. eigenvalues --    0.92620   0.93340   0.94274   0.96162   0.96621
 Alpha virt. eigenvalues --    0.97438   0.98797   0.98914   1.00840   1.02793
 Alpha virt. eigenvalues --    1.04533   1.06551   1.07814   1.08462   1.09501
 Alpha virt. eigenvalues --    1.10196   1.12284   1.13260   1.14857   1.15139
 Alpha virt. eigenvalues --    1.17199   1.17842   1.18690   1.20086   1.22933
 Alpha virt. eigenvalues --    1.23248   1.24878   1.26017   1.27734   1.28916
 Alpha virt. eigenvalues --    1.31048   1.34223   1.35941   1.36871   1.42628
 Alpha virt. eigenvalues --    1.43912   1.47481   1.48143   1.53253   1.55938
 Alpha virt. eigenvalues --    1.58101   1.62645   1.86537   1.87495   1.91863
 Alpha virt. eigenvalues --    1.93881   1.98101   2.01045   2.03000   2.07428
 Alpha virt. eigenvalues --    2.09898   2.13364   2.19790   2.25712   2.30091
 Alpha virt. eigenvalues --    2.30298   2.32616   2.34086   2.34333   2.35411
 Alpha virt. eigenvalues --    2.36463   2.36982   2.64419   2.64668   2.65594
 Alpha virt. eigenvalues --    2.66022   2.66195   2.66315   2.66979   2.67151
 Alpha virt. eigenvalues --    2.67411   2.67747   2.68794   2.69219   2.70368
 Alpha virt. eigenvalues --    2.71156   2.72664   2.75780   2.76132   2.76761
 Alpha virt. eigenvalues --    2.78244   2.79249   2.96392   2.97773   2.98265
 Alpha virt. eigenvalues --    3.00876   3.01055   3.01588   3.02336   3.02768
 Alpha virt. eigenvalues --    3.21468   3.22887   3.23615   3.25324   3.47058
 Alpha virt. eigenvalues --    3.49947   3.51772   3.53423   3.67425   3.71136
 Alpha virt. eigenvalues --    3.72581   3.73294   7.96640
          Condensed to atoms (all electrons):
               1          2          3          4          5          6
     1  Pt  17.417198   0.015888  -0.009404  -0.008275   0.036035   0.013800
     2  N    0.015888   6.639675   0.186712   0.176316  -0.009962  -0.005791
     3  O   -0.009404   0.186712   8.183563  -0.093622  -0.014410   0.000131
     4  O   -0.008275   0.176316  -0.093622   8.203509  -0.000601   0.000091
     5  N    0.036035  -0.009962  -0.014410  -0.000601   6.653624   0.000056
     6  N    0.013800  -0.005791   0.000131   0.000091   0.000056   6.647214
     7  O   -0.005384   0.000102   0.000000   0.000000  -0.000326   0.178776
     8  O    0.006751   0.000136  -0.000003   0.000000  -0.022284   0.177676
     9  O   -0.000857  -0.003649   0.001770  -0.001119   0.173607   0.000029
    10  O   -0.005979  -0.002969  -0.005093   0.000161   0.176173   0.000009
    11  Cl   0.251137  -0.007155   0.000280  -0.028685  -0.001934  -0.013310
    12  Cl  -0.007223  -0.013439   0.000202  -0.001958  -0.009494  -0.019430
    13  N   -0.042647  -0.018207  -0.001098   0.000279  -0.019761  -0.009608
    14  O   -0.006684  -0.003270   0.000053   0.000099   0.000432   0.000206
    15  O    0.010537   0.000149   0.000077   0.000001   0.000636  -0.021706
               7          8          9         10         11         12
     1  Pt  -0.005384   0.006751  -0.000857  -0.005979   0.251137  -0.007223
     2  N    0.000102   0.000136  -0.003649  -0.002969  -0.007155  -0.013439
     3  O    0.000000  -0.000003   0.001770  -0.005093   0.000280   0.000202
     4  O    0.000000   0.000000  -0.001119   0.000161  -0.028685  -0.001958
     5  N   -0.000326  -0.022284   0.173607   0.176173  -0.001934  -0.009494
     6  N    0.178776   0.177676   0.000029   0.000009  -0.013310  -0.019430
     7  O    8.183334  -0.089301   0.000013  -0.000002  -0.017652  -0.003239
     8  O   -0.089301   8.201892   0.000144  -0.000008   0.000899   0.000404
     9  O    0.000013   0.000144   8.221167  -0.093955  -0.016279   0.000178
    10  O   -0.000002  -0.000008  -0.093955   8.210769   0.000070   0.000199
    11  Cl  -0.017652   0.000899  -0.016279   0.000070  16.928650  -0.024103
    12  Cl  -0.003239   0.000404   0.000178   0.000199  -0.024103  17.473459
    13  N    0.000271  -0.001740   0.000251  -0.010303  -0.003513  -0.061166
    14  O    0.000001   0.000010   0.000002   0.000105   0.000044  -0.010017
    15  O    0.000272   0.000195   0.000000  -0.000199   0.000050   0.000389
              13         14         15
     1  Pt  -0.042647  -0.006684   0.010537
     2  N   -0.018207  -0.003270   0.000149
     3  O   -0.001098   0.000053   0.000077
     4  O    0.000279   0.000099   0.000001
     5  N   -0.019761   0.000432   0.000636
     6  N   -0.009608   0.000206  -0.021706
     7  O    0.000271   0.000001   0.000272
     8  O   -0.001740   0.000010   0.000195
     9  O    0.000251   0.000002   0.000000
    10  O   -0.010303   0.000105  -0.000199
    11  Cl  -0.003513   0.000044   0.000050
    12  Cl  -0.061166  -0.010017   0.000389
    13  N    6.792360   0.175007   0.165210
    14  O    0.175007   8.202767  -0.091745
    15  O    0.165210  -0.091745   8.213898
 Mulliken charges:
               1
     1  Pt   0.335107
     2  N    0.045465
     3  O   -0.249158
     4  O   -0.246195
     5  N    0.038209
     6  N    0.051857
     7  O   -0.246866
     8  O   -0.274769
     9  O   -0.281302
    10  O   -0.268977
    11  Cl  -0.068499
    12  Cl  -0.324762
    13  N    0.034665
    14  O   -0.267008
    15  O   -0.277764
 Sum of Mulliken charges =  -2.00000
 Mulliken charges with hydrogens summed into heavy atoms:
               1
     1  Pt   0.335107
     2  N    0.045465
     3  O   -0.249158
     4  O   -0.246195
     5  N    0.038209
     6  N    0.051857
     7  O   -0.246866
     8  O   -0.274769
     9  O   -0.281302
    10  O   -0.268977
    11  Cl  -0.068499
    12  Cl  -0.324762
    13  N    0.034665
    14  O   -0.267008
    15  O   -0.277764
 Electronic spatial extent (au):  <R**2>=           3003.4843
 Charge=             -2.0000 electrons
 Dipole moment (field-independent basis, Debye):
    X=             -1.6848    Y=             -0.4284    Z=             -2.8325  Tot=              3.3234
 Quadrupole moment (field-independent basis, Debye-Ang):
   XX=           -152.9280   YY=           -148.6044   ZZ=           -139.5502
   XY=             -0.0628   XZ=             -0.1079   YZ=             -0.2469
 Traceless Quadrupole moment (field-independent basis, Debye-Ang):
   XX=             -5.9005   YY=             -1.5768   ZZ=              7.4773
   XY=             -0.0628   XZ=             -0.1079   YZ=             -0.2469
 Octapole moment (field-independent basis, Debye-Ang**2):
  XXX=            -28.1714  YYY=            -15.9858  ZZZ=            -25.3147  XYY=             10.1352
  XXY=              3.9036  XXZ=            -20.1508  XZZ=             -3.5237  YZZ=             -0.6143
  YYZ=              0.7567  XYZ=             -4.4587
 Hexadecapole moment (field-independent basis, Debye-Ang**3):
 XXXX=          -1496.0818 YYYY=          -1390.0990 ZZZZ=          -1077.7131 XXXY=            -11.2549
 XXXZ=             17.1793 YYYX=              4.6929 YYYZ=             20.5025 ZZZX=             -4.4648
 ZZZY=            -10.5632 XXYY=           -508.0082 XXZZ=           -449.4792 YYZZ=           -407.5500
 XXYZ=             -4.7379 YYXZ=             -2.2952 ZZXY=              1.0444
 N-N= 1.741862346232D+03 E-N=-7.893460922223D+03  KE= 1.770541628766D+03
   1 Symmetry operations used in ECPInt.
 ECPInt:  NShTT=    4656 NPrTT=   19519 LenC2=    4426 LenP2D=   13231.
 LDataN:  DoStor=T MaxTD1= 7 Len=  274
 D1PCM: PCM CHGder 1st derivatives, ID1Alg=3 FixD1E=F DoIter=F DoCFld=F I1PDM=0.
 Calling FoFJK, ICntrl=      2127 FMM=F ISym2X=0 I1Cent= 0 IOpClX= 0 NMat=1 NMatS=1 NMatT=0.
 Defaulting to unpruned grid for atomic number  78.
 Defaulting to unpruned grid for atomic number  78.
 Defaulting to unpruned grid for atomic number  78.
 Defaulting to unpruned grid for atomic number  78.
 Defaulting to unpruned grid for atomic number  78.
 Defaulting to unpruned grid for atomic number  78.
 Defaulting to unpruned grid for atomic number  78.
 Defaulting to unpruned grid for atomic number  78.
 ***** Axes restored to original set *****
 -------------------------------------------------------------------
 Center     Atomic                   Forces (Hartrees/Bohr)
 Number     Number              X              Y              Z
 -------------------------------------------------------------------
      1       78          -0.024047285    0.134487050   -0.016534603
      2        7           0.114325788    0.168740826    0.078407774
      3        8          -0.018626822   -0.098883752    0.026588358
      4        8          -0.013144854   -0.051640340   -0.095775306
      5        7           0.172090522    0.115963512   -0.003048692
      6        7          -0.108716049    0.123308182    0.137044412
      7        8           0.020038252   -0.007999842   -0.104553303
      8        8           0.021902307   -0.095301425   -0.013146776
      9        8          -0.076403974   -0.013649249   -0.065902758
     10        8          -0.075667393   -0.015942148    0.064929390
     11       17          -0.009755665   -0.007210675    0.053048509
     12       17           0.004008008   -0.228117626    0.002049202
     13        7          -0.055690066   -0.170716736   -0.102070641
     14        8          -0.035073549    0.095952098    0.020753866
     15        8           0.084760781    0.051010126    0.018210570
 -------------------------------------------------------------------
 Cartesian Forces:  Max     0.228117626 RMS     0.086758283

 GradGradGradGradGradGradGradGradGradGradGradGradGradGradGradGradGradGrad
 Berny optimization.
 FormGI is forming the generalized inverse of G from B-inverse, IUseBI=4.
 Internal  Forces:  Max     0.228115383 RMS     0.046955643
 Search for a local minimum.
 Step number   1 out of a maximum of   90
 All quantities printed in internal units (Hartrees-Bohrs-Radians)
 Mixed Optimization -- RFO/linear search
 Second derivative matrix not updated -- first step.
 ITU=  0
     Eigenvalues ---    0.00230   0.00230   0.00230   0.00230   0.03391
     Eigenvalues ---    0.03424   0.04734   0.04734   0.06423   0.06756
     Eigenvalues ---    0.08233   0.08474   0.08487   0.08931   0.12615
     Eigenvalues ---    0.16743   0.16743   0.20378   0.20378   0.20378
     Eigenvalues ---    0.20378   0.22001   0.25000   0.25000   0.25000
     Eigenvalues ---    0.25000   0.25000   0.25000   0.25000   0.25000
     Eigenvalues ---    0.52948   0.52948   0.52948   0.52948   0.52948
     Eigenvalues ---    0.52948   0.52948   0.52948   0.57823
 RFO step:  Lambda=-2.74861137D-01 EMin= 2.30000000D-03
 Linear search not attempted -- first point.
 Maximum step size (   0.300) exceeded in Quadratic search.
    -- Step size scaled by   0.503
 Iteration  1 RMS(Cart)=  0.06343754 RMS(Int)=  0.00162531
 Iteration  2 RMS(Cart)=  0.00196994 RMS(Int)=  0.00072395
 Iteration  3 RMS(Cart)=  0.00000526 RMS(Int)=  0.00072394
 Iteration  4 RMS(Cart)=  0.00000001 RMS(Int)=  0.00072394
 Variable       Old X    -DE/DX   Delta X   Delta X   Delta X     New X
                                 (Linear)    (Quad)   (Total)
    R1        3.76056   0.08254   0.00000   0.08666   0.08666   3.84722
    R2        3.76056   0.08638   0.00000   0.09070   0.09070   3.85125
    R3        3.76056   0.06679   0.00000   0.07013   0.07013   3.83069
    R4        4.30858   0.05305   0.00000   0.05388   0.05388   4.36245
    R5        3.76056   0.22812   0.00000   0.13438   0.13438   3.89494
    R6        3.76056   0.06309   0.00000   0.06624   0.06624   3.82679
    R7        2.57003  -0.09539   0.00000  -0.05960  -0.05960   2.51043
    R8        2.57003  -0.10028   0.00000  -0.06266  -0.06266   2.50737
    R9        2.57003  -0.09606   0.00000  -0.06002  -0.06002   2.51001
   R10        2.57003  -0.09203   0.00000  -0.05750  -0.05750   2.51253
   R11        2.57003  -0.09857   0.00000  -0.06159  -0.06159   2.50844
   R12        2.57003  -0.09223   0.00000  -0.05762  -0.05762   2.51240
   R13        2.57003  -0.09661   0.00000  -0.06036  -0.06036   2.50966
   R14        2.57003  -0.09394   0.00000  -0.05869  -0.05869   2.51134
    A1        1.57080   0.00406   0.00000   0.00430   0.00426   1.57506
    A2        1.57080   0.00863   0.00000   0.01058   0.01056   1.58136
    A3        1.57080  -0.00331   0.00000  -0.00325  -0.00322   1.56757
    A4        1.57080  -0.00335   0.00000  -0.00319  -0.00317   1.56762
    A5        1.57080  -0.00987   0.00000  -0.01172  -0.01175   1.55905
    A6        1.57080   0.00676   0.00000   0.00926   0.00921   1.58001
    A7        1.57080  -0.00161   0.00000  -0.00163  -0.00162   1.56918
    A8        1.57080  -0.00981   0.00000  -0.01176  -0.01172   1.55908
    A9        1.57080   0.00912   0.00000   0.01068   0.01071   1.58151
   A10        1.57080   0.00452   0.00000   0.00437   0.00439   1.57519
   A11        1.57080  -0.00484   0.00000  -0.00645  -0.00641   1.56438
   A12        1.57080  -0.00030   0.00000  -0.00118  -0.00119   1.56961
   A13        1.91063   0.03027   0.00000   0.03529   0.03387   1.94450
   A14        1.91063   0.04959   0.00000   0.05379   0.05240   1.96303
   A15        1.91063  -0.01130   0.00000   0.00180  -0.00067   1.90996
   A16        1.91063   0.04674   0.00000   0.05177   0.05012   1.96075
   A17        1.91063   0.03675   0.00000   0.04221   0.04054   1.95117
   A18        1.91063  -0.00678   0.00000   0.00755   0.00467   1.91530
   A19        1.91063   0.03347   0.00000   0.03755   0.03672   1.94736
   A20        1.91063   0.02259   0.00000   0.02713   0.02630   1.93693
   A21        1.91063  -0.00303   0.00000   0.00811   0.00661   1.91724
   A22        1.91063   0.03152   0.00000   0.03711   0.03581   1.94644
   A23        1.91063   0.03611   0.00000   0.04151   0.04021   1.95084
   A24        1.91063   0.00074   0.00000   0.01459   0.01229   1.92292
   A25        3.14159  -0.00581   0.00000  -0.00742  -0.00748   3.13411
   A26        3.14159   0.00076   0.00000   0.00104   0.00104   3.14263
   A27        3.14159   0.00529   0.00000   0.00739   0.00738   3.14898
   A28        3.14159   0.00118   0.00000   0.00118   0.00123   3.14282
   A29        3.14159   0.00191   0.00000   0.00281   0.00281   3.14440
   A30        3.14159  -0.00515   0.00000  -0.00763  -0.00762   3.13397
    D1       -0.65581  -0.01480   0.00000  -0.02462  -0.02499  -0.68080
    D2        1.43858   0.02027   0.00000   0.03213   0.03252   1.47110
    D3       -2.22661  -0.02155   0.00000  -0.03388  -0.03425  -2.26085
    D4       -0.13221   0.01351   0.00000   0.02287   0.02326  -0.10895
    D5        2.48578  -0.01671   0.00000  -0.02743  -0.02780   2.45798
    D6       -1.70301   0.01836   0.00000   0.02932   0.02971  -1.67330
    D7        0.91499  -0.01641   0.00000  -0.02625  -0.02662   0.88836
    D8        3.00938   0.01866   0.00000   0.03050   0.03088   3.04026
    D9       -2.52842  -0.03195   0.00000  -0.05252  -0.05284  -2.58125
   D10       -0.43402  -0.00281   0.00000  -0.00478  -0.00487  -0.43889
   D11       -0.43402   0.00133   0.00000   0.00199   0.00205  -0.43197
   D12        1.66037   0.03048   0.00000   0.04973   0.05002   1.71039
   D13       -0.98912  -0.02083   0.00000  -0.03059  -0.03113  -1.02025
   D14        1.10528   0.02199   0.00000   0.03620   0.03675   1.14203
   D15        2.15247  -0.02201   0.00000  -0.03177  -0.03236   2.12012
   D16       -2.03632   0.02081   0.00000   0.03502   0.03552  -2.00079
   D17        0.58168  -0.01220   0.00000  -0.02001  -0.02053   0.56115
   D18        2.67607   0.03062   0.00000   0.04677   0.04735   2.72342
   D19       -2.55991  -0.01748   0.00000  -0.02740  -0.02795  -2.58786
   D20       -0.46552   0.02534   0.00000   0.03939   0.03993  -0.42559
   D21       -1.87261  -0.01899   0.00000  -0.03019  -0.03045  -1.90305
   D22        0.22179   0.01162   0.00000   0.01936   0.01957   0.24136
   D23       -0.30181  -0.01223   0.00000  -0.02092  -0.02109  -0.32290
   D24        1.79259   0.01838   0.00000   0.02862   0.02892   1.82151
   D25        1.26899  -0.01707   0.00000  -0.02738  -0.02763   1.24135
   D26       -2.91980   0.01354   0.00000   0.02217   0.02238  -2.89742
   D27        2.83978  -0.01738   0.00000  -0.02855  -0.02877   2.81101
   D28       -1.34901   0.01323   0.00000   0.02099   0.02124  -1.32776
   D29        0.84811  -0.02275   0.00000  -0.03521  -0.03562   0.81249
   D30        2.94251   0.01957   0.00000   0.03080   0.03127   2.97378
   D31        2.41891  -0.01869   0.00000  -0.03092  -0.03136   2.38756
   D32       -1.76988   0.02363   0.00000   0.03510   0.03554  -1.73434
   D33       -2.29348  -0.02856   0.00000  -0.04264  -0.04311  -2.33659
   D34       -0.19908   0.01376   0.00000   0.02338   0.02378  -0.17530
   D35       -0.72268  -0.01945   0.00000  -0.03196  -0.03240  -0.75509
   D36        1.37171   0.02288   0.00000   0.03405   0.03449   1.40620
         Item               Value     Threshold  Converged?
 Maximum Force            0.228115     0.000450     NO 
 RMS     Force            0.046956     0.000300     NO 
 Maximum Displacement     0.204462     0.001800     NO 
 RMS     Displacement     0.062175     0.001200     NO 
 Predicted change in Energy=-1.206287D-01
 GradGradGradGradGradGradGradGradGradGradGradGradGradGradGradGradGradGrad

                          Input orientation:                          
 ---------------------------------------------------------------------
 Center     Atomic      Atomic             Coordinates (Angstroms)
 Number     Number       Type             X           Y           Z
 ---------------------------------------------------------------------
      1         78           0       -0.316907    0.330639    0.022409
      2          7           0        1.718919    0.322776    0.013457
      3          8           0        2.204103    1.273808   -0.777075
      4          8           0        2.231981    0.455526    1.229869
      5          7           0       -0.317819    2.368525    0.001223
      6          7           0       -2.343857    0.353660    0.033653
      7          8           0       -2.829874   -0.031249    1.207384
      8          8           0       -2.807854    1.561240   -0.273017
      9          8           0        0.329304    2.884565    1.040046
     10          8           0        0.190235    2.850661   -1.128905
     11         17           0       -0.331120    0.333364    2.330874
     12         17           0       -0.318153   -1.730413    0.038051
     13          7           0       -0.319451    0.312870   -2.002563
     14          8           0        0.526113   -0.591564   -2.482932
     15          8           0       -1.537631    0.107086   -2.492232
 ---------------------------------------------------------------------
                    Distance matrix (angstroms):
                    1          2          3          4          5
     1  Pt   0.000000
     2  N    2.035860   0.000000
     3  O    2.807887   1.328460   0.000000
     4  O    2.823187   1.326843   2.167530   0.000000
     5  N    2.037996   2.886787   2.857313   3.416228   0.000000
     6  N    2.027112   4.062943   4.710402   4.730708   2.857545
     7  O    2.801809   4.716176   5.566164   5.085257   3.677521
     8  O    2.794006   4.701865   5.045434   5.374123   2.631956
     9  O    2.824130   3.089931   3.067790   3.091350   1.328239
    10  O    2.816599   3.167344   2.581843   3.933092   1.329573
    11  Cl   2.308510   3.094058   4.119604   2.792243   3.093433
    12  Cl   2.061112   2.892378   4.006438   3.563978   4.099103
    13  N    2.025052   2.866947   2.965392   4.120530   2.870693
    14  O    2.799621   2.913891   3.034009   4.217970   3.955424
    15  O    2.804205   4.114623   4.278269   5.308995   3.580414
                    6          7          8          9         10
     6  N    0.000000
     7  O    1.327409   0.000000
     8  O    1.329507   2.174418   0.000000
     9  O    3.816294   4.302370   3.649258   0.000000
    10  O    3.742750   4.783797   3.373973   2.173669   0.000000
    11  Cl   3.054299   2.763864   3.797649   2.934455   4.310298
    12  Cl   2.906347   3.250114   4.138883   4.766678   4.754628
    13  N    2.871594   4.089548   3.277485   4.036331   2.731931
    14  O    3.932350   5.019466   4.542425   4.953138   3.714178
    15  O    2.662873   3.921248   2.941589   4.865884   3.517298
                   11         12         13         14         15
    11  Cl   0.000000
    12  Cl   3.084863   0.000000
    13  N    4.333501   2.887752   0.000000
    14  O    4.976250   2.892251   1.328057   0.000000
    15  O    4.976869   3.356466   1.328942   2.178816   0.000000
 Stoichiometry    Cl2N4O8Pt(2-)
 Framework group  C1[X(Cl2N4O8Pt)]
 Deg. of freedom    39
 Full point group                 C1      NOp   1
 Largest Abelian subgroup         C1      NOp   1
 Largest concise Abelian subgroup C1      NOp   1
                         Standard orientation:                         
 ---------------------------------------------------------------------
 Center     Atomic      Atomic             Coordinates (Angstroms)
 Number     Number       Type             X           Y           Z
 ---------------------------------------------------------------------
      1         78           0       -0.072120   -0.010632   -0.113722
      2          7           0        1.831672    0.260823   -0.782016
      3          8           0        2.560183    0.944478    0.093595
      4          8           0        2.439013   -0.885056   -1.062394
      5          7           0        0.625722   -0.316456    1.776494
      6          7           0       -1.962237   -0.285617    0.565263
      7          8           0       -2.471486   -1.435101    0.139392
      8          8           0       -2.002484   -0.238504    1.893326
      9          8           0        1.478482   -1.332711    1.841643
     10          8           0        1.191923    0.777609    2.276696
     11         17           0        0.069442   -2.272183   -0.554818
     12         17           0       -0.780312    0.304052   -2.023597
     13          7           0       -0.215644    1.973723    0.263860
     14          8           0        0.233703    2.697322   -0.755074
     15          8           0       -1.460142    2.329491    0.565089
 ---------------------------------------------------------------------
 Rotational constants (GHZ):      0.5128128      0.4926816      0.4481415
 Basis read from rwf:  (5D, 7F)
 Pseudo-potential data read from rwf file.
 There are   242 symmetry adapted cartesian basis functions of A   symmetry.
 There are   226 symmetry adapted basis functions of A   symmetry.
   226 basis functions,   417 primitive gaussians,   242 cartesian basis functions
    73 alpha electrons       73 beta electrons
       nuclear repulsion energy      1713.7643296819 Hartrees.
 NAtoms=   15 NActive=   15 NUniq=   15 SFac= 1.00D+00 NAtFMM=   60 NAOKFM=F Big=F
 Integral buffers will be    131072 words long.
 Raffenetti 2 integral format.
 Two-electron integral symmetry is turned on.
 ------------------------------------------------------------------------------
 Polarizable Continuum Model (PCM)
 =================================
 Model                : PCM (using non-symmetric T matrix).
 Atomic radii         : UFF (Universal Force Field).
 Polarization charges : Total charges.
 Charge compensation  : None.
 Solution method      : On-the-fly selection.
 Cavity type          : Scaled VdW (van der Waals Surface) (Alpha=1.100).
 Cavity algorithm     : GePol (No added spheres)
                        Default sphere list used, NSphG=   15.
                        Lebedev-Laikov grids with approx.  5.0 points / Ang**2.
                        Smoothing algorithm: Karplus/York (Gamma=1.0000).
                        Polarization charges: spherical gaussians, with
                                              point-specific exponents (IZeta= 3).
                        Self-potential: point-specific (ISelfS= 7).
                        Self-field    : sphere-specific E.n sum rule (ISelfD= 2).
 1st derivatives      : Analytical E(r).r(x)/FMM algorithm (CHGder, D1EAlg=3).
                        Cavity 1st derivative terms included.
 Solvent              : Water, Eps=  78.355300 Eps(inf)=   1.777849
 ------------------------------------------------------------------------------
 Spheres list:
 ISph  on   Nord     Re0    Alpha      Xe            Ye            Ze
    1  Pt      1    1.3770  1.100     -0.072120     -0.010632     -0.113722
    2   N      2    1.8300  1.100      1.831672      0.260823     -0.782016
    3   O      3    1.7500  1.100      2.560183      0.944478      0.093595
    4   O      4    1.7500  1.100      2.439013     -0.885056     -1.062394
    5   N      5    1.8300  1.100      0.625722     -0.316456      1.776494
    6   N      6    1.8300  1.100     -1.962237     -0.285617      0.565263
    7   O      7    1.7500  1.100     -2.471486     -1.435101      0.139392
    8   O      8    1.7500  1.100     -2.002484     -0.238504      1.893326
    9   O      9    1.7500  1.100      1.478482     -1.332711      1.841643
   10   O     10    1.7500  1.100      1.191923      0.777609      2.276696
   11  Cl     11    1.9735  1.100      0.069442     -2.272183     -0.554818
   12  Cl     12    1.9735  1.100     -0.780312      0.304052     -2.023597
   13   N     13    1.8300  1.100     -0.215644      1.973723      0.263860
   14   O     14    1.7500  1.100      0.233703      2.697322     -0.755074
   15   O     15    1.7500  1.100     -1.460142      2.329491      0.565089
 ------------------------------------------------------------------------------
 One-electron integrals computed using PRISM.
   1 Symmetry operations used in ECPInt.
 ECPInt:  NShTT=    4656 NPrTT=   19519 LenC2=    4414 LenP2D=   13145.
 LDataN:  DoStor=T MaxTD1= 6 Len=  172
 NBasis=   226 RedAO= T EigKep=  2.85D-03  NBF=   226
 NBsUse=   226 1.00D-06 EigRej= -1.00D+00 NBFU=   226
 Defaulting to unpruned grid for atomic number  78.
 Initial guess from the checkpoint file:  "/home/scr/diego/Gau-12274.chk"
 B after Tr=     0.000000    0.000000    0.000000
         Rot=    0.996608   -0.006607    0.018039    0.080016 Ang=  -9.44 deg.
 ExpMin= 2.90D-02 ExpMax= 1.04D+04 ExpMxC= 1.57D+03 IAcc=3 IRadAn=         5 AccDes= 0.00D+00
 Harris functional with IExCor=  402 and IRadAn=       5 diagonalized for initial guess.
 HarFok:  IExCor=  402 AccDes= 0.00D+00 IRadAn=         5 IDoV= 1 UseB2=F ITyADJ=14
 ICtDFT=  3500011 ScaDFX=  1.000000  1.000000  1.000000  1.000000
 Defaulting to unpruned grid for atomic number  78.
 Defaulting to unpruned grid for atomic number  78.
 Defaulting to unpruned grid for atomic number  78.
 Defaulting to unpruned grid for atomic number  78.
 Defaulting to unpruned grid for atomic number  78.
 Defaulting to unpruned grid for atomic number  78.
 Defaulting to unpruned grid for atomic number  78.
 Defaulting to unpruned grid for atomic number  78.
 FoFCou: FMM=F IPFlag=           0 FMFlag=      100000 FMFlg1=           0
         NFxFlg=           0 DoJE=T BraDBF=F KetDBF=T FulRan=T
         wScrn=  0.000000 ICntrl=     500 IOpCl=  0 I1Cent=   200000004 NGrid=           0
         NMat0=    1 NMatS0=      1 NMatT0=    0 NMatD0=    1 NMtDS0=    0 NMtDT0=    0
 Petite list used in FoFCou.
 Keep R1 ints in memory in canonical form, NReq=336372040.
 Requested convergence on RMS density matrix=1.00D-08 within 128 cycles.
 Requested convergence on MAX density matrix=1.00D-06.
 Requested convergence on             energy=1.00D-06.
 No special actions if energy rises.
 Defaulting to unpruned grid for atomic number  78.
 Defaulting to unpruned grid for atomic number  78.
 Defaulting to unpruned grid for atomic number  78.
 Defaulting to unpruned grid for atomic number  78.
 Defaulting to unpruned grid for atomic number  78.
 Defaulting to unpruned grid for atomic number  78.
 Defaulting to unpruned grid for atomic number  78.
 Defaulting to unpruned grid for atomic number  78.
 Inv3:  Mode=1 IEnd=     8217075.
 Iteration    1 A*A^-1 deviation from unit magnitude is 6.00D-15 for    232.
 Iteration    1 A*A^-1 deviation from orthogonality  is 5.75D-15 for   1320     57.
 Iteration    1 A^-1*A deviation from unit magnitude is 6.22D-15 for    980.
 Iteration    1 A^-1*A deviation from orthogonality  is 7.76D-11 for   1337   1319.
 Error on total polarization charges =  0.00777
 SCF Done:  E(RB3LYP) =  -1859.21355156     A.U. after   17 cycles
            NFock= 17  Conv=0.78D-08     -V/T= 2.0502
   1 Symmetry operations used in ECPInt.
 ECPInt:  NShTT=    4656 NPrTT=   19519 LenC2=    4414 LenP2D=   13145.
 LDataN:  DoStor=T MaxTD1= 7 Len=  274
 D1PCM: PCM CHGder 1st derivatives, ID1Alg=3 FixD1E=F DoIter=F DoCFld=F I1PDM=0.
 Calling FoFJK, ICntrl=      2127 FMM=F ISym2X=0 I1Cent= 0 IOpClX= 0 NMat=1 NMatS=1 NMatT=0.
 Defaulting to unpruned grid for atomic number  78.
 Defaulting to unpruned grid for atomic number  78.
 Defaulting to unpruned grid for atomic number  78.
 Defaulting to unpruned grid for atomic number  78.
 Defaulting to unpruned grid for atomic number  78.
 Defaulting to unpruned grid for atomic number  78.
 Defaulting to unpruned grid for atomic number  78.
 Defaulting to unpruned grid for atomic number  78.
 ***** Axes restored to original set *****
 -------------------------------------------------------------------
 Center     Atomic                   Forces (Hartrees/Bohr)
 Number     Number              X              Y              Z
 -------------------------------------------------------------------
      1       78          -0.018089145    0.093322543   -0.018195489
      2        7           0.104833093    0.157106805    0.069507896
      3        8          -0.028264782   -0.085556322    0.014442450
      4        8          -0.025862362   -0.051708938   -0.074653505
      5        7           0.157924000    0.101177820   -0.005612097
      6        7          -0.095638992    0.114683821    0.125776344
      7        8           0.024133676   -0.016332052   -0.089895994
      8        8           0.024660615   -0.080945194   -0.019457360
      9        8          -0.069060437   -0.024053415   -0.047744067
     10        8          -0.067716151   -0.024283042    0.050257876
     11       17          -0.004732382   -0.004276248    0.037476550
     12       17           0.002863770   -0.157872984    0.002032602
     13        7          -0.050241552   -0.155901443   -0.094131248
     14        8          -0.024425220    0.084793673    0.025263193
     15        8           0.069615869    0.049844977    0.024932849
 -------------------------------------------------------------------
 Cartesian Forces:  Max     0.157924000 RMS     0.074638145

 GradGradGradGradGradGradGradGradGradGradGradGradGradGradGradGradGradGrad
 Berny optimization.
 Using GEDIIS/GDIIS optimizer.
 FormGI is forming the generalized inverse of G from B-inverse, IUseBI=4.
 Internal  Forces:  Max     0.157882167 RMS     0.036020055
 Search for a local minimum.
 Step number   2 out of a maximum of   90
 All quantities printed in internal units (Hartrees-Bohrs-Radians)
 Mixed Optimization -- RFO/linear search
 Update second derivatives using D2CorX and points    1    2
 DE= -1.21D-01 DEPred=-1.21D-01 R= 1.00D+00
 TightC=F SS=  1.41D+00  RLast= 3.53D-01 DXNew= 5.0454D-01 1.0592D+00
 Trust test= 1.00D+00 RLast= 3.53D-01 DXMaxT set to 5.05D-01
 ITU=  1  0
 Use linear search instead of GDIIS.
 Linear search step of   0.597 exceeds DXMaxT=   0.505 but not scaled.
 Quartic linear search produced a step of  2.00000.
 Iteration  1 RMS(Cart)=  0.11845531 RMS(Int)=  0.01058344
 Iteration  2 RMS(Cart)=  0.01011839 RMS(Int)=  0.00400404
 Iteration  3 RMS(Cart)=  0.00007517 RMS(Int)=  0.00400369
 Iteration  4 RMS(Cart)=  0.00000076 RMS(Int)=  0.00400369
 Variable       Old X    -DE/DX   Delta X   Delta X   Delta X     New X
                                 (Linear)    (Quad)   (Total)
    R1        3.84722   0.05059   0.17333   0.00000   0.17333   4.02055
    R2        3.85125   0.05285   0.18140   0.00000   0.18140   4.03265
    R3        3.83069   0.04713   0.14026   0.00000   0.14026   3.97095
    R4        4.36245   0.03750   0.10775   0.00000   0.10775   4.47020
    R5        3.89494   0.15788   0.26876   0.00000   0.26876   4.16370
    R6        3.82679   0.04413   0.13248   0.00000   0.13248   3.95927
    R7        2.51043  -0.08017  -0.11920   0.00000  -0.11920   2.39122
    R8        2.50737  -0.08362  -0.12531   0.00000  -0.12531   2.38206
    R9        2.51001  -0.08032  -0.12004   0.00000  -0.12004   2.38997
   R10        2.51253  -0.07740  -0.11500   0.00000  -0.11500   2.39753
   R11        2.50844  -0.08359  -0.12318   0.00000  -0.12318   2.38526
   R12        2.51240  -0.07763  -0.11525   0.00000  -0.11525   2.39716
   R13        2.50966  -0.08244  -0.12073   0.00000  -0.12073   2.38893
   R14        2.51134  -0.08071  -0.11738   0.00000  -0.11738   2.39395
    A1        1.57506  -0.00454   0.00853   0.00000   0.00838   1.58344
    A2        1.58136   0.00236   0.02112   0.00000   0.02102   1.60238
    A3        1.56757   0.00173  -0.00645   0.00000  -0.00632   1.56125
    A4        1.56762  -0.00008  -0.00635   0.00000  -0.00627   1.56135
    A5        1.55905  -0.00473  -0.02349   0.00000  -0.02359   1.53546
    A6        1.58001   0.00425   0.01843   0.00000   0.01811   1.59811
    A7        1.56918  -0.00068  -0.00324   0.00000  -0.00316   1.56601
    A8        1.55908  -0.00531  -0.02343   0.00000  -0.02315   1.53593
    A9        1.58151   0.00755   0.02142   0.00000   0.02156   1.60306
   A10        1.57519   0.00313   0.00878   0.00000   0.00886   1.58405
   A11        1.56438  -0.00274  -0.01282   0.00000  -0.01257   1.55181
   A12        1.56961  -0.00081  -0.00237   0.00000  -0.00244   1.56717
   A13        1.94450   0.00800   0.06774   0.00000   0.05890   2.00340
   A14        1.96303   0.02253   0.10480   0.00000   0.09622   2.05925
   A15        1.90996   0.00779  -0.00135   0.00000  -0.01398   1.89598
   A16        1.96075   0.02363   0.10023   0.00000   0.08977   2.05052
   A17        1.95117   0.01538   0.08108   0.00000   0.07046   2.02164
   A18        1.91530   0.00807   0.00933   0.00000  -0.00553   1.90977
   A19        1.94736   0.02024   0.07344   0.00000   0.06822   2.01557
   A20        1.93693   0.00988   0.05259   0.00000   0.04725   1.98418
   A21        1.91724   0.00751   0.01321   0.00000   0.00513   1.92237
   A22        1.94644   0.01777   0.07161   0.00000   0.06311   2.00955
   A23        1.95084   0.01832   0.08042   0.00000   0.07197   2.02281
   A24        1.92292   0.01093   0.02458   0.00000   0.01235   1.93528
   A25        3.13411  -0.00927  -0.01496   0.00000  -0.01521   3.11890
   A26        3.14263  -0.00281   0.00208   0.00000   0.00206   3.14470
   A27        3.14898   0.00228   0.01477   0.00000   0.01476   3.16373
   A28        3.14282   0.00307   0.00246   0.00000   0.00270   3.14552
   A29        3.14440   0.00148   0.00562   0.00000   0.00563   3.15003
   A30        3.13397  -0.00354  -0.01525   0.00000  -0.01521   3.11876
    D1       -0.68080  -0.01476  -0.04997   0.00000  -0.05166  -0.73246
    D2        1.47110   0.01816   0.06503   0.00000   0.06681   1.53791
    D3       -2.26085  -0.01897  -0.06849   0.00000  -0.07014  -2.33099
    D4       -0.10895   0.01395   0.04652   0.00000   0.04833  -0.06062
    D5        2.45798  -0.01624  -0.05560   0.00000  -0.05729   2.40069
    D6       -1.67330   0.01668   0.05941   0.00000   0.06118  -1.61212
    D7        0.88836  -0.01543  -0.05324   0.00000  -0.05493   0.83343
    D8        3.04026   0.01749   0.06176   0.00000   0.06354   3.10380
    D9       -2.58125  -0.02936  -0.10568   0.00000  -0.10685  -2.68811
   D10       -0.43889  -0.00121  -0.00975   0.00000  -0.01003  -0.44893
   D11       -0.43197  -0.00001   0.00411   0.00000   0.00419  -0.42778
   D12        1.71039   0.02814   0.10004   0.00000   0.10101   1.81140
   D13       -1.02025  -0.01769  -0.06226   0.00000  -0.06456  -1.08481
   D14        1.14203   0.02262   0.07350   0.00000   0.07587   1.21790
   D15        2.12012  -0.02076  -0.06471   0.00000  -0.06726   2.05286
   D16       -2.00079   0.01955   0.07105   0.00000   0.07318  -1.92761
   D17        0.56115  -0.01536  -0.04106   0.00000  -0.04322   0.51793
   D18        2.72342   0.02495   0.09470   0.00000   0.09722   2.82064
   D19       -2.58786  -0.01762  -0.05589   0.00000  -0.05824  -2.64610
   D20       -0.42559   0.02270   0.07986   0.00000   0.08220  -0.34339
   D21       -1.90305  -0.01828  -0.06089   0.00000  -0.06220  -1.96525
   D22        0.24136   0.01292   0.03914   0.00000   0.04016   0.28152
   D23       -0.32290  -0.01391  -0.04219   0.00000  -0.04297  -0.36587
   D24        1.82151   0.01729   0.05784   0.00000   0.05939   1.88090
   D25        1.24135  -0.01680  -0.05527   0.00000  -0.05656   1.18479
   D26       -2.89742   0.01440   0.04477   0.00000   0.04580  -2.85162
   D27        2.81101  -0.01754  -0.05755   0.00000  -0.05862   2.75239
   D28       -1.32776   0.01366   0.04249   0.00000   0.04374  -1.28402
   D29        0.81249  -0.01742  -0.07125   0.00000  -0.07311   0.73938
   D30        2.97378   0.02373   0.06254   0.00000   0.06466   3.03843
   D31        2.38756  -0.02196  -0.06271   0.00000  -0.06468   2.32287
   D32       -1.73434   0.01919   0.07107   0.00000   0.07308  -1.66126
   D33       -2.33659  -0.02670  -0.08622   0.00000  -0.08833  -2.42492
   D34       -0.17530   0.01445   0.04757   0.00000   0.04943  -0.12587
   D35       -0.75509  -0.01915  -0.06481   0.00000  -0.06682  -0.82190
   D36        1.40620   0.02199   0.06898   0.00000   0.07095   1.47715
         Item               Value     Threshold  Converged?
 Maximum Force            0.157882     0.000450     NO 
 RMS     Force            0.036020     0.000300     NO 
 Maximum Displacement     0.361733     0.001800     NO 
 RMS     Displacement     0.116139     0.001200     NO 
 Predicted change in Energy=-1.434397D-01
 GradGradGradGradGradGradGradGradGradGradGradGradGradGradGradGradGradGrad

                          Input orientation:                          
 ---------------------------------------------------------------------
 Center     Atomic      Atomic             Coordinates (Angstroms)
 Number     Number       Type             X           Y           Z
 ---------------------------------------------------------------------
      1         78           0       -0.310108    0.317701    0.064238
      2          7           0        1.817186    0.295476    0.037323
      3          8           0        2.346261    1.121194   -0.762336
      4          8           0        2.423402    0.358468    1.140713
      5          7           0       -0.315606    2.450768    0.001796
      6          7           0       -2.410017    0.387543    0.097645
      7          8           0       -2.949319   -0.001043    1.170663
      8          8           0       -2.888148    1.509866   -0.250101
      9          8           0        0.219740    3.064433    0.969435
     10          8           0        0.063731    2.972818   -1.090547
     11         17           0       -0.354848    0.322179    2.429341
     12         17           0       -0.311508   -1.885154    0.110210
     13          7           0       -0.317360    0.266399   -2.030276
     14          8           0        0.518520   -0.526274   -2.550949
     15          8           0       -1.453937    0.147120   -2.576913
 ---------------------------------------------------------------------
                    Distance matrix (angstroms):
                    1          2          3          4          5
     1  Pt   0.000000
     2  N    2.127581   0.000000
     3  O    2.895708   1.265380   0.000000
     4  O    2.938118   1.260529   2.051658   0.000000
     5  N    2.133988   3.032384   3.072003   3.630016   0.000000
     6  N    2.101335   4.228636   4.888762   4.944772   2.941537
     7  O    2.879446   4.908356   5.747962   5.384819   3.783394
     8  O    2.857683   4.868010   5.273754   5.610048   2.750767
     9  O    2.940180   3.329834   3.361146   3.493954   1.264716
    10  O    2.919406   3.393355   2.957393   4.169100   1.268719
    11  Cl   2.365530   3.231129   4.256902   3.062768   3.228839
    12  Cl   2.203336   3.048245   4.106483   3.684496   4.337280
    13  N    2.095155   2.971885   3.071355   4.192305   2.983419
    14  O    2.870213   3.010143   3.042026   4.247319   4.009371
    15  O    2.883248   4.190046   4.322385   5.375794   3.640375
                    6          7          8          9         10
     6  N    0.000000
     7  O    1.262226   0.000000
     8  O    1.268521   2.074888   0.000000
     9  O    3.852452   4.413680   3.682786   0.000000
    10  O    3.770262   4.799520   3.400025   2.067912   0.000000
    11  Cl   3.108826   2.901728   3.873966   3.159341   4.426139
    12  Cl   3.093388   3.410642   4.277273   5.051625   5.018219
    13  N    2.986961   4.152680   3.365143   4.137118   2.890160
    14  O    4.052955   5.113920   4.587500   5.037416   3.818802
    15  O    2.850465   4.037629   3.054192   4.887586   3.535133
                   11         12         13         14         15
    11  Cl   0.000000
    12  Cl   3.201963   0.000000
    13  N    4.460123   3.034946   0.000000
    14  O    5.126981   3.101173   1.264170   0.000000
    15  O    5.128471   3.557515   1.266825   2.084399   0.000000
 Stoichiometry    Cl2N4O8Pt(2-)
 Framework group  C1[X(Cl2N4O8Pt)]
 Deg. of freedom    39
 Full point group                 C1      NOp   1
 Largest Abelian subgroup         C1      NOp   1
 Largest concise Abelian subgroup C1      NOp   1
                         Standard orientation:                         
 ---------------------------------------------------------------------
 Center     Atomic      Atomic             Coordinates (Angstroms)
 Number     Number       Type             X           Y           Z
 ---------------------------------------------------------------------
      1         78           0       -0.059376   -0.013801   -0.126477
      2          7           0        1.997978   -0.187209   -0.640115
      3          8           0        2.797251    0.344037    0.184583
      4          8           0        2.436607   -1.328094   -0.948206
      5          7           0        0.385714   -0.448388    1.914829
      6          7           0       -2.081331    0.139628    0.424673
      7          8           0       -2.839918   -0.756765   -0.038187
      8          8           0       -2.260996    0.261454    1.674483
      9          8           0        0.889501   -1.579000    2.174488
     10          8           0        1.019975    0.451089    2.545939
     11         17           0       -0.446576   -2.299653   -0.596249
     12         17           0       -0.523176    0.453605   -2.229121
     13          7           0        0.228386    2.026036    0.255534
     14          8           0        0.948972    2.633732   -0.586836
     15          8           0       -0.816158    2.692147    0.520243
 ---------------------------------------------------------------------
 Rotational constants (GHZ):      0.4757920      0.4510417      0.4263282
 Basis read from rwf:  (5D, 7F)
 Pseudo-potential data read from rwf file.
 There are   242 symmetry adapted cartesian basis functions of A   symmetry.
 There are   226 symmetry adapted basis functions of A   symmetry.
   226 basis functions,   417 primitive gaussians,   242 cartesian basis functions
    73 alpha electrons       73 beta electrons
       nuclear repulsion energy      1666.9238070865 Hartrees.
 NAtoms=   15 NActive=   15 NUniq=   15 SFac= 1.00D+00 NAtFMM=   60 NAOKFM=F Big=F
 Integral buffers will be    131072 words long.
 Raffenetti 2 integral format.
 Two-electron integral symmetry is turned on.
 ------------------------------------------------------------------------------
 Polarizable Continuum Model (PCM)
 =================================
 Model                : PCM (using non-symmetric T matrix).
 Atomic radii         : UFF (Universal Force Field).
 Polarization charges : Total charges.
 Charge compensation  : None.
 Solution method      : On-the-fly selection.
 Cavity type          : Scaled VdW (van der Waals Surface) (Alpha=1.100).
 Cavity algorithm     : GePol (No added spheres)
                        Default sphere list used, NSphG=   15.
                        Lebedev-Laikov grids with approx.  5.0 points / Ang**2.
                        Smoothing algorithm: Karplus/York (Gamma=1.0000).
                        Polarization charges: spherical gaussians, with
                                              point-specific exponents (IZeta= 3).
                        Self-potential: point-specific (ISelfS= 7).
                        Self-field    : sphere-specific E.n sum rule (ISelfD= 2).
 1st derivatives      : Analytical E(r).r(x)/FMM algorithm (CHGder, D1EAlg=3).
                        Cavity 1st derivative terms included.
 Solvent              : Water, Eps=  78.355300 Eps(inf)=   1.777849
 ------------------------------------------------------------------------------
 Spheres list:
 ISph  on   Nord     Re0    Alpha      Xe            Ye            Ze
    1  Pt      1    1.3770  1.100     -0.059376     -0.013801     -0.126477
    2   N      2    1.8300  1.100      1.997978     -0.187209     -0.640115
    3   O      3    1.7500  1.100      2.797251      0.344037      0.184583
    4   O      4    1.7500  1.100      2.436607     -1.328094     -0.948206
    5   N      5    1.8300  1.100      0.385714     -0.448388      1.914829
    6   N      6    1.8300  1.100     -2.081331      0.139628      0.424673
    7   O      7    1.7500  1.100     -2.839918     -0.756765     -0.038187
    8   O      8    1.7500  1.100     -2.260996      0.261454      1.674483
    9   O      9    1.7500  1.100      0.889501     -1.579000      2.174488
   10   O     10    1.7500  1.100      1.019975      0.451089      2.545939
   11  Cl     11    1.9735  1.100     -0.446576     -2.299653     -0.596249
   12  Cl     12    1.9735  1.100     -0.523176      0.453605     -2.229121
   13   N     13    1.8300  1.100      0.228386      2.026036      0.255534
   14   O     14    1.7500  1.100      0.948972      2.633732     -0.586836
   15   O     15    1.7500  1.100     -0.816158      2.692147      0.520243
 ------------------------------------------------------------------------------
 One-electron integrals computed using PRISM.
   1 Symmetry operations used in ECPInt.
 ECPInt:  NShTT=    4656 NPrTT=   19519 LenC2=    4379 LenP2D=   13001.
 LDataN:  DoStor=T MaxTD1= 6 Len=  172
 NBasis=   226 RedAO= T EigKep=  3.41D-03  NBF=   226
 NBsUse=   226 1.00D-06 EigRej= -1.00D+00 NBFU=   226
 Defaulting to unpruned grid for atomic number  78.
 Initial guess from the checkpoint file:  "/home/scr/diego/Gau-12274.chk"
 B after Tr=     0.000000    0.000000    0.000000
         Rot=    0.991851   -0.001955    0.047852    0.118056 Ang= -14.64 deg.
 ExpMin= 2.90D-02 ExpMax= 1.04D+04 ExpMxC= 1.57D+03 IAcc=3 IRadAn=         5 AccDes= 0.00D+00
 Harris functional with IExCor=  402 and IRadAn=       5 diagonalized for initial guess.
 HarFok:  IExCor=  402 AccDes= 0.00D+00 IRadAn=         5 IDoV= 1 UseB2=F ITyADJ=14
 ICtDFT=  3500011 ScaDFX=  1.000000  1.000000  1.000000  1.000000
 Defaulting to unpruned grid for atomic number  78.
 Defaulting to unpruned grid for atomic number  78.
 Defaulting to unpruned grid for atomic number  78.
 Defaulting to unpruned grid for atomic number  78.
 Defaulting to unpruned grid for atomic number  78.
 Defaulting to unpruned grid for atomic number  78.
[...]
   A13        2.03566  -0.00001   0.00000  -0.00004  -0.00004   2.03562
   A14        2.09783   0.00000   0.00000   0.00006   0.00006   2.09789
   A15        2.14916   0.00000   0.00000  -0.00002  -0.00002   2.14914
   A16        2.09171   0.00000   0.00000   0.00005   0.00005   2.09176
   A17        2.02421   0.00000   0.00000  -0.00003  -0.00003   2.02417
   A18        2.16659  -0.00001   0.00000  -0.00002  -0.00002   2.16658
   A19        2.09219   0.00000   0.00000  -0.00007  -0.00007   2.09212
   A20        2.04084   0.00001   0.00000   0.00007   0.00007   2.04092
   A21        2.14966  -0.00001   0.00000   0.00000   0.00000   2.14966
   A22        2.06867  -0.00001   0.00000  -0.00009  -0.00009   2.06858
   A23        2.04551  -0.00001   0.00000   0.00006   0.00006   2.04558
   A24        2.16875   0.00001   0.00000   0.00003   0.00003   2.16877
   A25        3.08203   0.00000   0.00000  -0.00002  -0.00002   3.08201
   A26        3.11484   0.00000   0.00000   0.00022   0.00022   3.11506
   A27        3.16795   0.00000   0.00000  -0.00021  -0.00021   3.16774
   A28        3.19148   0.00000   0.00000  -0.00002  -0.00002   3.19146
   A29        3.23887   0.00000   0.00000  -0.00006  -0.00006   3.23881
   A30        3.10581   0.00000   0.00000  -0.00009  -0.00009   3.10573
    D1       -0.45206   0.00000   0.00000   0.00038   0.00038  -0.45168
    D2        2.65549   0.00000   0.00000   0.00031   0.00031   2.65580
    D3       -2.06593   0.00000   0.00000   0.00037   0.00037  -2.06556
    D4        1.04162   0.00000   0.00000   0.00030   0.00030   1.04191
    D5        2.59225   0.00000   0.00000   0.00044   0.00044   2.59270
    D6       -0.58339   0.00000   0.00000   0.00037   0.00037  -0.58302
    D7        1.11144   0.00000   0.00000   0.00045   0.00045   1.11190
    D8       -2.06420   0.00000   0.00000   0.00038   0.00038  -2.06381
    D9        3.06698   0.00000   0.00000   0.00202   0.00202   3.06899
   D10       -0.14318   0.00000   0.00000   0.00192   0.00192  -0.14125
   D11       -0.14740   0.00000   0.00000   0.00195   0.00195  -0.14545
   D12        2.92563   0.00000   0.00000   0.00186   0.00186   2.92749
   D13       -1.24298   0.00000   0.00000  -0.00064  -0.00064  -1.24362
   D14        1.86080   0.00000   0.00000  -0.00059  -0.00059   1.86022
   D15        1.84873   0.00000   0.00000  -0.00062  -0.00062   1.84811
   D16       -1.33067   0.00000   0.00000  -0.00057  -0.00057  -1.33124
   D17        0.31947   0.00000   0.00000  -0.00087  -0.00087   0.31860
   D18       -2.85993   0.00000   0.00000  -0.00082  -0.00082  -2.86075
   D19       -2.84654   0.00000   0.00000  -0.00065  -0.00065  -2.84719
   D20        0.25725   0.00000   0.00000  -0.00060  -0.00060   0.25664
   D21       -2.80011   0.00000   0.00000   0.00163   0.00163  -2.79848
   D22        0.30883   0.00000   0.00000   0.00157   0.00157   0.31040
   D23       -1.18632   0.00000   0.00000   0.00163   0.00163  -1.18469
   D24        1.92262   0.00000   0.00000   0.00157   0.00157   1.92419
   D25        0.43735   0.00000   0.00000   0.00158   0.00158   0.43893
   D26       -2.73689   0.00000   0.00000   0.00151   0.00151  -2.73538
   D27        1.91795   0.00000   0.00000   0.00156   0.00156   1.91951
   D28       -1.25630   0.00000   0.00000   0.00149   0.00149  -1.25480
   D29       -0.02579   0.00000   0.00000  -0.00016  -0.00016  -0.02594
   D30        3.09258   0.00000   0.00000  -0.00023  -0.00023   3.09235
   D31        1.49168   0.00000   0.00000  -0.00014  -0.00014   1.49154
   D32       -1.67314   0.00000   0.00000  -0.00021  -0.00021  -1.67335
   D33        3.05594   0.00000   0.00000  -0.00018  -0.00018   3.05576
   D34       -0.10888   0.00000   0.00000  -0.00025  -0.00025  -0.10913
   D35       -1.62012   0.00000   0.00000  -0.00036  -0.00036  -1.62048
   D36        1.49825  -0.00001   0.00000  -0.00043  -0.00043   1.49781
         Item               Value     Threshold  Converged?
 Maximum Force            0.000029     0.000450     YES
 RMS     Force            0.000006     0.000300     YES
 Maximum Displacement     0.002837     0.001800     NO 
 RMS     Displacement     0.000578     0.001200     YES
 Predicted change in Energy=-1.163227D-08
 GradGradGradGradGradGradGradGradGradGradGradGradGradGradGradGradGradGrad

 1\1\GINC-NEQC17\Freq\RB3LYP\Gen\Cl2N4O8Pt1(2-)\DIEGO\18-Aug-2021\0\\#N
  Geom=AllCheck Guess=TCheck SCRF=Check GenChk RB3LYP/ChkBas Freq\\Estr
 utura 63\\-2,1\Pt,-0.2729391435,0.4040537507,0.1563575697\N,1.86228103
 01,0.3816753772,0.148499588\O,2.4178570924,1.2815156052,-0.4662432882\
 O,2.4675861675,-0.4751464598,0.7648592127\N,-0.1399776393,2.4913669909
 ,-0.1443152266\N,-2.4008118287,0.5672502191,0.2515522704\O,-3.05407436
 8,-0.3190018947,0.7697061331\O,-2.8982667097,1.5882126104,-0.199148832
 \O,0.2409891625,3.2076523088,0.7565471204\O,-0.4242501218,2.8888414498
 ,-1.259888511\Cl,-0.2465245273,0.6480233098,2.5975625062\Cl,-0.3630443
 554,-2.0499161627,0.2683704879\N,-0.3515447527,0.1216443508,-1.9209023
 802\O,0.693118706,0.054970927,-2.5372307216\O,-1.4524094221,0.01035126
 76,-2.4254842585\\Version=EM64L-G09RevD.01\State=1-A\HF=-1859.5318918\
 RMSD=2.279e-09\RMSF=1.848e-05\ZeroPoint=0.0500039\Thermal=0.067919\Dip
 ole=0.0014734,0.2866835,-0.3858585\DipoleDeriv=1.0943869,-0.017311,-0.
 0692271,-0.009412,1.0550155,0.1550189,-0.0464304,0.2297167,0.9758978,2
 .3694531,-0.1492748,0.1265086,-0.0118486,1.5963826,-0.8591211,0.117923
 4,-0.8597712,0.952501,-1.7120619,-0.3051974,0.2296835,-0.4719359,-0.88
 49359,0.4335569,0.2205711,0.3867838,-0.5516994,-1.8320885,0.5229954,-0
 .3490074,0.4493561,-0.9198586,0.4129446,-0.352274,0.4441566,-0.6185436
 ,0.5317553,0.3410575,0.5022553,0.2413863,2.8817975,0.0692651,0.4610532
 ,-0.1806427,2.0726022,2.4124196,0.0593143,-0.2625508,-0.1020423,1.8578
 675,-0.6980835,-0.2526391,-0.7340033,0.7343875,-1.8883684,-0.4568768,0
 .3844267,-0.3990601,-0.9638533,0.352411,0.3806484,0.3827594,-0.5324003
 ,-1.670012,0.4188537,-0.0659459,0.5840604,-1.083394,0.303595,-0.061337
 ,0.2977977,-0.4274473,-0.3984042,-0.3588295,-0.2879292,-0.2754814,-1.9
 670279,-0.4492328,-0.2227589,-0.4137874,-0.9866769,-0.3160265,-0.02277
 35,-0.1878071,0.0204307,-1.5858542,0.4013122,-0.2320169,0.6728693,-1.1
 864357,-0.2558905,0.0024982,0.0010324,0.0178187,-0.2678746,-0.1231509,
 -0.0150592,-0.1250412,-1.5375652,-0.2504075,-0.0393565,0.0088487,-0.04
 72154,-1.5520878,0.1014857,0.006318,0.0123995,-0.2495809,2.216731,0.06
 32456,0.0085871,0.0535482,0.5144318,0.4208164,-0.0022097,0.4447242,2.8
 110799,-1.1102093,0.108975,0.5549216,0.07778,-0.3364812,-0.2577841,0.4
 460681,-0.2746688,-1.7885242,-1.1912771,-0.1673202,-0.5937963,-0.12738
 47,-0.3441275,-0.2630335,-0.447857,-0.2832927,-1.6675949\Polar=195.198
 6281,3.0135943,196.4556267,2.7052863,-8.3038294,190.2901491\PG=C01 [X(
 Cl2N4O8Pt1)]\NImag=0\\0.24377724,0.00307880,0.29386131,0.00532964,-0.0
 2415107,0.30768688,-0.07072335,-0.00003680,0.00856188,0.58235408,-0.00
 544706,-0.04492454,-0.01124118,-0.01586836,0.64445124,0.00362176,-0.01
 229349,-0.05297576,0.02029247,-0.35338472,0.39274613,-0.00342727,-0.01
 924441,0.01272933,-0.24626934,-0.17347090,0.11597592,0.20782685,0.0002
 8548,-0.00122829,0.00961133,-0.16673353,-0.30647988,0.17783093,0.17512
 251,0.40174411,0.00140773,0.01028550,0.00900691,0.11342893,0.18126239,
 -0.17060143,-0.11983994,-0.26330328,0.20408907,0.00170922,0.01937268,-
 0.01535656,-0.27088418,0.18308546,-0.13311778,0.05503842,-0.00346679,0
 .00276354,0.22782909,0.00195179,-0.00085060,0.01063287,0.18014784,-0.3
 0292573,0.18393119,0.01340968,-0.09341886,0.07647290,-0.19340649,0.396
 13233,-0.00119227,0.01080938,0.00612642,-0.13195021,0.18426087,-0.1794
 9526,-0.00867458,0.07735983,-0.03643695,0.14232918,-0.26796673,0.21214
 061,-0.04759296,-0.00033060,0.00718485,-0.00081605,0.00921976,-0.00256
 741,-0.00457852,-0.00064596,0.00079593,-0.00133682,-0.00134127,0.00094
 138,0.24121754,0.00258476,-0.06530854,0.00365685,0.02580926,-0.0027589
 0,-0.00044722,-0.00736896,-0.00635227,0.00221666,-0.00817146,0.0020342
 3,-0.00126117,0.07098806,0.56710727,0.00758599,0.01220690,-0.03456651,
 -0.00311954,0.00098239,-0.00005529,0.00019558,-0.00107228,-0.00161635,
 0.00036803,0.00028714,0.00022822,0.21926888,0.05051510,0.84537764,-0.0
 7094709,0.00261197,-0.00837505,0.00850277,0.00356152,0.00045136,0.0071
 0253,0.00187402,-0.00124776,0.00713655,-0.00288443,0.00171231,-0.00556
 886,-0.02400878,0.00574224,0.58090423,0.00776733,-0.04327135,-0.007369
 05,-0.00247039,0.01902973,0.00321860,0.00221914,-0.00229290,-0.0016764
 4,-0.00447560,-0.00131032,-0.00219451,-0.00902081,0.00103359,-0.006841
 17,0.01242815,0.74101094,-0.00387849,-0.00809737,-0.05430508,0.0006650
 9,0.00319514,0.02207673,-0.00384856,-0.00258984,-0.00320140,0.00136906
 ,-0.00143043,-0.00339584,0.00229880,0.00091322,0.00363234,-0.05422588,
 -0.30053708,0.30441368,0.00059530,-0.02135410,0.01361424,0.00702200,0.
 00408776,-0.00122175,-0.00973119,-0.00490136,0.00258115,-0.01309324,0.
 00428226,-0.00364813,0.00037963,0.00814896,-0.00084986,-0.29003379,-0.
 19629606,0.12516149,0.24960551,-0.00114233,-0.00155217,0.00797517,0.00
 216369,-0.00146505,-0.00110798,-0.00347052,-0.00120095,0.00111104,-0.0
 0376658,0.00197207,-0.00093966,0.00182902,0.00122716,0.00246004,-0.192
 78738,-0.32011957,0.15825591,0.21563771,0.43430786,0.00207480,0.009946
 61,0.00788991,-0.00195045,-0.00210791,-0.00371233,0.00314935,0.0017800
 8,-0.00005766,0.00340093,-0.00092521,0.00179797,-0.00068463,-0.0014963
 1,-0.00100381,0.12397362,0.15904146,-0.14177823,-0.13500755,-0.2312288
 9,0.15092683,-0.00166419,0.02147370,-0.00827044,0.00675407,-0.00365354
 ,0.00220297,-0.01050445,-0.00424852,0.00241576,-0.00936652,0.00390533,
 -0.00287010,-0.00145813,0.00672433,0.00017005,-0.22377034,0.18738215,-
 0.07263943,0.05312117,-0.02476826,0.00834259,0.18514402,-0.00041906,-0
 .00524905,0.00874931,-0.00277157,-0.00130537,-0.00215813,0.00574716,0.
 00316592,-0.00117679,0.00585819,-0.00184434,0.00199183,0.00030036,-0.0
 0552636,0.00679730,0.18020525,-0.38992251,0.15032112,-0.00635266,-0.11
 269164,0.06580952,-0.17879416,0.50703192,0.00017318,0.00721838,0.01139
 154,0.00004242,-0.00137893,-0.00383041,-0.00076987,-0.00020242,0.00114
 735,-0.00144601,0.00077612,0.00028050,-0.00140925,0.00192978,-0.004405
 63,-0.07153203,0.15383113,-0.11560958,-0.00053914,0.06647492,-0.015205
 25,0.07189444,-0.22581357,0.12278783,0.01034830,-0.00398462,-0.0075108
 6,-0.00208137,-0.00263149,0.00178373,0.00114100,0.00288466,-0.00016810
 ,0.00059784,0.00066215,-0.00063682,-0.10552362,-0.10433307,-0.12141457
 ,0.00245242,0.00012609,0.00050148,-0.00049127,-0.00000310,-0.00017400,
 -0.00117612,0.00085501,0.00003164,0.09064680,-0.00980927,-0.00806244,-
 0.01991255,-0.00990079,0.00015819,0.00112722,0.00432028,0.00299808,-0.
 00130880,0.00342460,-0.00043772,0.00003782,-0.10525046,-0.31565554,-0.
 22340469,0.00867735,-0.00079305,-0.00022734,-0.00315406,-0.00019962,0.
 00041656,-0.00394922,0.00204342,-0.00030218,0.11845869,0.29057388,-0.0
 0527503,-0.00369433,-0.00105395,-0.00232301,-0.00122954,0.00133277,0.0
 0153551,0.00185834,-0.00048061,0.00073835,0.00005232,-0.00025255,-0.11
 954109,-0.21567328,-0.34326853,0.00130131,0.00093414,-0.00078425,-0.00
 050894,-0.00049933,0.00026915,-0.00109648,-0.00069862,0.00114416,0.173
 24991,0.25612226,0.46976253,0.01276294,0.00073588,-0.00423839,-0.00045
 139,-0.00141462,0.00039654,0.00004711,0.00066011,-0.00048143,0.0006921
 2,0.00016414,-0.00002952,-0.08208172,0.03164373,-0.10623632,-0.0024083
 4,0.00554533,-0.00266572,0.00043962,-0.00187604,0.00085198,-0.00089742
 ,-0.00480887,0.00330874,0.00491541,-0.00214611,-0.04980893,0.06867730,
 0.00457974,-0.00684851,0.02367105,-0.00783448,-0.00044725,0.00073679,0
 .00328226,0.00184286,-0.00105307,0.00292267,-0.00024157,0.00021529,0.0
 3450989,-0.18622390,0.17375031,0.00788263,-0.00030335,-0.00021203,-0.0
 0278943,-0.00008964,0.00032648,-0.00356512,0.00250463,-0.00070877,-0.0
 0887146,0.04613087,-0.04035340,-0.02973124,0.15794849,-0.00618540,0.00
 399287,-0.01070604,0.00483008,0.00126078,-0.00123585,-0.00138006,-0.00
 146780,0.00166207,-0.00124837,-0.00055727,0.00022347,-0.10516707,0.163
 25428,-0.47119923,-0.00537458,0.00364848,-0.00187303,0.00120866,-0.001
 24830,0.00042533,0.00156379,-0.00399806,0.00251926,-0.04753211,-0.0185
 3739,-0.12637369,0.15879211,-0.15500286,0.60637909,-0.01654430,0.00054
 159,-0.00120863,-0.00387802,0.00331686,0.00192655,0.00075339,-0.000476
 20,-0.00045971,0.00092905,-0.00198883,0.00271099,-0.00040716,-0.001103
 45,-0.00105316,-0.00438024,-0.00287437,-0.00273232,0.00113515,0.002191
 76,-0.00248194,0.00098920,0.00014263,0.00057467,0.00057708,-0.00096577
 ,0.00152216,0.00010577,0.00024775,0.00027046,0.01287249,-0.00020683,-0
 .01479704,-0.00622109,0.00075054,-0.00109188,0.00081028,0.00000232,0.0
 0051572,-0.00031481,0.00003973,0.00074559,-0.00113750,-0.00225233,-0.0
 0563135,-0.00221656,-0.00064809,-0.00109897,0.00101760,0.00030827,0.00
 035483,-0.00091534,-0.00001489,0.00054084,-0.00028708,0.00039198,-0.00
 089341,0.00642534,0.00065524,0.00096696,0.00149821,0.00121968,0.017048
 41,-0.00215048,-0.00754541,-0.08029034,0.00070015,0.00008909,-0.001552
 75,0.00023262,-0.00034255,0.00059120,0.00069765,-0.00008684,-0.0014183
 1,0.00035331,0.00198814,-0.00004834,-0.00142170,0.00000828,-0.00265264
 ,-0.00083554,0.00065515,-0.00044452,-0.00018871,-0.00044094,0.00056744
 ,0.00048949,0.00188888,-0.00107513,0.00010969,0.00027649,0.00039378,0.
 00172261,0.00696081,0.09256860,-0.01288655,-0.00293332,-0.00029866,-0.
 00453541,0.00178118,-0.00317333,0.00056094,-0.00111229,0.00099939,-0.0
 0020616,-0.00517509,0.00056014,0.00844717,-0.00000609,-0.00062914,-0.0
 0467450,-0.00218770,0.00273191,-0.00032267,0.00585315,-0.00046972,0.00
 072989,0.00131348,-0.00085861,-0.00158418,0.00028890,0.00018103,-0.001
 52549,-0.00077243,0.00089972,0.00047889,-0.00019831,0.00008994,0.01568
 660,-0.00326762,-0.07770466,0.00902526,-0.00111368,-0.00100335,0.00016
 992,-0.00033091,0.00069897,-0.00026972,-0.00149530,-0.00044715,-0.0005
 3115,0.00256097,0.02198327,-0.00745291,0.00101711,-0.00050377,-0.00028
 102,0.00235224,-0.00097601,-0.00030605,0.00032853,0.00059370,-0.000386
 89,-0.00368931,-0.01611570,-0.00398038,0.00065405,-0.01203487,0.009706
 37,-0.00015756,-0.00157576,-0.00174609,0.00323201,0.09075275,-0.000568
 67,0.00540646,-0.01863166,-0.00078724,0.00154758,-0.00047403,0.0001365
 5,-0.00042886,0.00026120,-0.00161354,-0.00136356,-0.00006957,-0.000436
 37,0.00115934,0.00732196,0.00116319,0.00131293,-0.00062498,0.00148071,
 -0.00169619,-0.00005148,-0.00021668,-0.00048316,0.00024226,0.00069512,
 0.00208221,-0.00034826,0.00028193,-0.00155669,-0.00002700,-0.00031911,
 -0.00388980,-0.00027582,0.00010473,-0.00720758,0.01556492,-0.02987735,
 0.00150472,-0.00212544,-0.00152717,0.00653147,-0.00987683,0.00012077,-
 0.00221588,0.00695062,-0.00023167,-0.00172835,0.00053746,-0.00001633,-
 0.00195407,0.00093250,-0.00043275,-0.00467894,0.00812738,-0.00098061,0
 .00044595,0.00016282,-0.00108206,0.00279385,-0.00478755,0.00039242,0.0
 0010038,-0.00045448,-0.00168865,-0.00006076,-0.00105446,0.00760514,0.0
 0002079,0.00169073,-0.00199989,0.00013659,-0.00064901,0.92663396,0.001
 84789,-0.04989213,0.00214429,-0.00398822,0.00011983,0.00027973,0.00152
 031,0.00019221,-0.00027177,0.00146256,-0.00047403,0.00013941,-0.001208
 76,-0.00956827,-0.01008270,0.00443941,-0.00026156,-0.00082556,-0.00162
 262,-0.00055065,0.00030635,-0.00154824,0.00044378,-0.00008635,0.000539
 81,0.00136392,0.00200533,-0.00008480,-0.00192290,-0.00205472,-0.000209
 59,0.00863427,0.00300880,-0.00028733,-0.00464230,0.00410264,0.01801236
 ,0.17456568,0.00061036,0.00479055,-0.07553982,-0.02359201,-0.00369208,
 -0.00088275,0.00786369,0.00332494,-0.00514312,0.00800670,-0.00128612,0
 .00203919,-0.00133601,-0.02647092,0.00403299,0.02338231,-0.00379154,-0
 .00381166,-0.00838832,-0.00174627,0.00239801,-0.00808154,0.00401145,-0
 .00235250,0.00157975,0.00961533,0.00093454,-0.00105061,0.00829566,-0.0
 0835816,-0.00037977,0.00071052,0.02209197,-0.00004414,0.00266449,-0.00
 601387,-0.02456090,0.06021660,0.56134343,-0.00590956,0.00060890,0.0052
 6098,-0.00580271,-0.00647003,0.00164610,0.00215053,0.00213544,-0.00683
 015,0.00162955,0.00121715,0.00022317,0.00002692,-0.00401673,0.00192136
 ,0.00206609,0.00162785,-0.00139243,-0.00014028,-0.00023558,-0.00019802
 ,-0.00000811,-0.00083070,0.00152550,-0.00010472,0.00134386,-0.00027624
 ,0.00040480,0.00196274,-0.00260339,-0.00022102,0.00069058,0.00669916,0
 .00090326,0.00051941,-0.00113498,-0.43065484,0.02343522,0.22022663,0.5
 8117222,0.00285348,0.01309267,-0.00319982,0.00021939,-0.00153303,0.001
 66928,-0.00098926,0.00006230,-0.00227662,-0.00074776,0.00098585,-0.000
 85990,-0.00005100,0.00210701,0.00179497,-0.00157682,0.00054962,-0.0000
 8451,0.00065191,0.00002124,-0.00003387,0.00079378,-0.00048182,0.000247
 51,-0.00018603,-0.00065196,-0.00054631,0.00042546,-0.00081405,0.000001
 80,-0.00028455,-0.00186629,-0.00223550,-0.00034942,0.00056639,0.000110
 99,0.02340525,-0.05759945,-0.02571422,-0.01979683,0.02471005,0.0229248
 4,-0.00398129,-0.00754394,0.00782438,0.00019079,-0.00102509,-0.0046494
 1,-0.00161348,-0.00014691,-0.00404293,0.00081014,-0.00131100,0.0004087
 9,0.01022220,-0.00213282,-0.00777765,0.00047684,0.00020938,0.00305185,
 0.00068172,-0.00047376,0.00278269,-0.00101765,0.00027880,-0.00045354,-
 0.00386749,0.00002665,0.00010800,-0.00452297,0.00433427,-0.00197903,-0
 .00132947,-0.01487488,0.00000082,0.00016022,0.00179966,0.23008507,-0.0
 2672521,-0.26802860,-0.24681059,0.02610207,0.23894522,-0.00962037,-0.0
 0204439,-0.00529690,0.00233608,-0.00262802,0.00165971,-0.00023077,0.00
 083831,-0.00231594,-0.00044326,0.00078412,-0.00001299,-0.00069107,0.00
 506352,-0.00288204,-0.00594869,0.00490783,0.00052763,0.00249466,-0.000
 07147,-0.00098981,0.00318899,-0.00323892,0.00379189,-0.00010999,-0.001
 43839,0.00075591,0.00100794,-0.00176278,0.00298064,-0.00001543,-0.0007
 5868,-0.00818894,0.00092810,-0.00074655,0.00186338,-0.46626099,-0.0423
 0799,-0.19423613,-0.14551211,-0.00436760,-0.00147331,0.61887691,-0.004
 65710,0.01273535,-0.00337138,0.00162709,0.00017600,-0.00038239,-0.0007
 4869,-0.00024701,0.00030280,-0.00063593,0.00008026,0.00007619,0.000693
 14,0.00153262,0.00227615,-0.00079192,-0.00174653,0.00058218,0.00100120
 ,0.00096213,-0.00061347,-0.00006588,0.00069689,-0.00131165,-0.00021932
 ,-0.00045891,-0.00072254,-0.00042227,-0.00046776,-0.00049639,0.0004000
 4,-0.00185193,-0.00247832,0.00055325,0.00040848,0.00090369,-0.04231336
 ,-0.06040839,-0.03092841,-0.00219129,0.02085149,0.00441359,0.04777104,
 0.02773729,-0.02447794,-0.00489368,-0.00648856,0.00737705,0.00024533,-
 0.00031469,-0.00265613,-0.00074494,0.00092664,-0.00284825,0.00065346,-
 0.00045690,-0.00011012,0.00949333,-0.00229664,-0.00777168,-0.00006208,
 -0.00229543,0.00390114,0.00085267,-0.00098018,0.00399107,-0.00189363,0
 .00104424,-0.00044112,-0.00372987,0.00016717,0.00066193,-0.00386227,0.
 00383574,0.00188623,-0.00111111,-0.01358025,-0.00009407,0.00043552,0.0
 0132667,-0.20497791,-0.03215684,-0.22270966,0.02174289,0.00502414,0.04
 994301,0.20381691,0.03174995,0.19187885\\-0.00001041,-0.00001126,-0.00
 000697,0.00000709,-0.00001538,0.00000903,0.00000629,-0.00003732,0.0000
 2574,-0.00002215,-0.00003559,0.00000971,0.00002106,-0.00000056,0.00000
 240,-0.00001221,0.00002652,-0.00000445,-0.00002411,0.00001485,-0.00002
 439,0.00001179,0.00003410,-0.00002289,0.00001939,-0.00001144,0.0000199
 2,0.00002704,0.00000390,0.00000692,-0.00002543,-0.00000958,0.00001007,
 -0.00002632,0.00000724,-0.00001519,0.00000441,0.00000645,-0.00001100,-
 0.00001533,0.00000296,0.00000875,0.00003889,0.00002512,-0.00000765\\\@


 HO!  SUCH BUGS AND GOBLINS IN MY LIFE!

                            -- HAMLET, ACT 5, SCENE 2
 Job cpu time:       0 days  0 hours 26 minutes 54.7 seconds.
 File lengths (MBytes):  RWF=    179 Int=      0 D2E=      0 Chk=      9 Scr=      1
 Normal termination of Gaussian 09 at Wed Aug 18 14:58:20 2021.
