 Entering Gaussian System, Link 0=g09
 Input=estrutura55_D2O.com
 Output=estrutura55_D2O.log
 Initial command:
 /home/scr/programs/g09/l1.exe "/home/scr/diego/Gau-19381.inp" -scrdir="/home/scr/diego/"
 Entering Link 1 = /home/scr/programs/g09/l1.exe PID=     19383.
  
 Copyright (c) 1988,1990,1992,1993,1995,1998,2003,2009,2013,
            Gaussian, Inc.  All Rights Reserved.
  
 This is part of the Gaussian(R) 09 program.  It is based on
 the Gaussian(R) 03 system (copyright 2003, Gaussian, Inc.),
 the Gaussian(R) 98 system (copyright 1998, Gaussian, Inc.),
 the Gaussian(R) 94 system (copyright 1995, Gaussian, Inc.),
 the Gaussian 92(TM) system (copyright 1992, Gaussian, Inc.),
 the Gaussian 90(TM) system (copyright 1990, Gaussian, Inc.),
 the Gaussian 88(TM) system (copyright 1988, Gaussian, Inc.),
 the Gaussian 86(TM) system (copyright 1986, Carnegie Mellon
 University), and the Gaussian 82(TM) system (copyright 1983,
 Carnegie Mellon University). Gaussian is a federally registered
 trademark of Gaussian, Inc.
  
 This software contains proprietary and confidential information,
 including trade secrets, belonging to Gaussian, Inc.
  
 This software is provided under written license and may be
 used, copied, transmitted, or stored only in accord with that
 written license.
  
 The following legend is applicable only to US Government
 contracts under FAR:
  
                    RESTRICTED RIGHTS LEGEND
  
 Use, reproduction and disclosure by the US Government is
 subject to restrictions as set forth in subparagraphs (a)
 and (c) of the Commercial Computer Software - Restricted
 Rights clause in FAR 52.227-19.
  
 Gaussian, Inc.
 340 Quinnipiac St., Bldg. 40, Wallingford CT 06492
  
  
 ---------------------------------------------------------------
 Warning -- This program may not be used in any manner that
 competes with the business of Gaussian, Inc. or will provide
 assistance to any competitor of Gaussian, Inc.  The licensee
 of this program is prohibited from giving any competitor of
 Gaussian, Inc. access to this program.  By using this program,
 the user acknowledges that Gaussian, Inc. is engaged in the
 business of creating and licensing software in the field of
 computational chemistry and represents and warrants to the
 licensee that it is not a competitor of Gaussian, Inc. and that
 it will not use this program in any manner prohibited above.
 ---------------------------------------------------------------
  

 Cite this work as:
 Gaussian 09, Revision D.01,
 M. J. Frisch, G. W. Trucks, H. B. Schlegel, G. E. Scuseria, 
 M. A. Robb, J. R. Cheeseman, G. Scalmani, V. Barone, B. Mennucci, 
 G. A. Petersson, H. Nakatsuji, M. Caricato, X. Li, H. P. Hratchian, 
 A. F. Izmaylov, J. Bloino, G. Zheng, J. L. Sonnenberg, M. Hada, 
 M. Ehara, K. Toyota, R. Fukuda, J. Hasegawa, M. Ishida, T. Nakajima, 
 Y. Honda, O. Kitao, H. Nakai, T. Vreven, J. A. Montgomery, Jr., 
 J. E. Peralta, F. Ogliaro, M. Bearpark, J. J. Heyd, E. Brothers, 
 K. N. Kudin, V. N. Staroverov, T. Keith, R. Kobayashi, J. Normand, 
 K. Raghavachari, A. Rendell, J. C. Burant, S. S. Iyengar, J. Tomasi, 
 M. Cossi, N. Rega, J. M. Millam, M. Klene, J. E. Knox, J. B. Cross, 
 V. Bakken, C. Adamo, J. Jaramillo, R. Gomperts, R. E. Stratmann, 
 O. Yazyev, A. J. Austin, R. Cammi, C. Pomelli, J. W. Ochterski, 
 R. L. Martin, K. Morokuma, V. G. Zakrzewski, G. A. Voth, 
 P. Salvador, J. J. Dannenberg, S. Dapprich, A. D. Daniels, 
 O. Farkas, J. B. Foresman, J. V. Ortiz, J. Cioslowski, 
 and D. J. Fox, Gaussian, Inc., Wallingford CT, 2013.
 
 ******************************************
 Gaussian 09:  EM64L-G09RevD.01 24-Apr-2013
                18-Aug-2021 
 ******************************************
 %mem=15gb
 %nproc=8
 Will use up to    8 processors via shared memory.
 ------------------------------------------------------------
 #b3lyp/gen pseudo=read opt freq=noraman scrf=(solvent=water)
 ------------------------------------------------------------
 1/14=-1,18=20,19=15,26=3,38=1/1,3;
 2/9=110,12=2,17=6,18=5,40=1/2;
 3/5=7,11=2,16=1,17=8,25=1,30=1,70=2201,71=1,72=1,74=-5/1,2,3;
 4//1;
 5/5=2,38=5,53=1/2;
 6/7=2,8=2,9=2,10=2,28=1/1;
 7//1,2,3,16;
 1/14=-1,18=20,19=15,26=3/3(2);
 2/9=110/2;
 99//99;
 2/9=110/2;
 3/5=7,6=1,11=2,16=1,17=8,25=1,30=1,70=2205,71=1,72=1,74=-5,82=7/1,2,3;
 4/5=5,16=3,69=1/1;
 5/5=2,38=5,53=1/2;
 7//1,2,3,16;
 1/14=-1,18=20,19=15,26=3/3(-5);
 2/9=110/2;
 6/7=2,8=2,9=2,10=2,19=2,28=1/1;
 99/9=1/99;
 ------------
 Estrutura 55
 ------------
 Symbolic Z-matrix:
 Charge = -2 Multiplicity = 1
 Pt                   -0.31955   0.33835   0. 
 N                    -0.31955  -1.65165   0. 
 N                    -0.31955   0.33835   1.99 
 O                     0.95213  -2.10499   0.1641 
 O                    -0.81328  -2.10499  -1.18335 
 O                     0.74918  -0.37012   2.44333 
 O                    -1.46746  -0.23297   2.44333 
 Br                   -2.74955   0.33835   0. 
 Br                    2.11045   0.33835   0. 
 Br                   -0.31955   2.32835   0. 
 N                    -0.31955   0.33835  -1.99 
 O                     0.64815  -0.50287  -2.44333 
 O                    -1.53191  -0.0791   -2.44333 
 

 GradGradGradGradGradGradGradGradGradGradGradGradGradGradGradGradGradGrad
 Berny optimization.
 Initialization pass.
                           ----------------------------
                           !    Initial Parameters    !
                           ! (Angstroms and Degrees)  !
 --------------------------                            --------------------------
 ! Name  Definition              Value          Derivative Info.                !
 --------------------------------------------------------------------------------
 ! R1    R(1,2)                  1.99           estimate D2E/DX2                !
 ! R2    R(1,3)                  1.99           estimate D2E/DX2                !
 ! R3    R(1,8)                  2.43           estimate D2E/DX2                !
 ! R4    R(1,9)                  2.43           estimate D2E/DX2                !
 ! R5    R(1,10)                 1.99           estimate D2E/DX2                !
 ! R6    R(1,11)                 1.99           estimate D2E/DX2                !
 ! R7    R(2,4)                  1.36           estimate D2E/DX2                !
 ! R8    R(2,5)                  1.36           estimate D2E/DX2                !
 ! R9    R(3,6)                  1.36           estimate D2E/DX2                !
 ! R10   R(3,7)                  1.36           estimate D2E/DX2                !
 ! R11   R(11,12)                1.36           estimate D2E/DX2                !
 ! R12   R(11,13)                1.36           estimate D2E/DX2                !
 ! A1    A(2,1,3)               90.0            estimate D2E/DX2                !
 ! A2    A(2,1,8)               90.0            estimate D2E/DX2                !
 ! A3    A(2,1,9)               90.0            estimate D2E/DX2                !
 ! A4    A(2,1,11)              90.0            estimate D2E/DX2                !
 ! A5    A(3,1,8)               90.0            estimate D2E/DX2                !
 ! A6    A(3,1,9)               90.0            estimate D2E/DX2                !
 ! A7    A(3,1,10)              90.0            estimate D2E/DX2                !
 ! A8    A(8,1,10)              90.0            estimate D2E/DX2                !
 ! A9    A(8,1,11)              90.0            estimate D2E/DX2                !
 ! A10   A(9,1,10)              90.0            estimate D2E/DX2                !
 ! A11   A(9,1,11)              90.0            estimate D2E/DX2                !
 ! A12   A(10,1,11)             90.0            estimate D2E/DX2                !
 ! A13   A(1,2,4)              109.4712         estimate D2E/DX2                !
 ! A14   A(1,2,5)              109.4712         estimate D2E/DX2                !
 ! A15   A(4,2,5)              109.4713         estimate D2E/DX2                !
 ! A16   A(1,3,6)              109.4712         estimate D2E/DX2                !
 ! A17   A(1,3,7)              109.4712         estimate D2E/DX2                !
 ! A18   A(6,3,7)              109.4713         estimate D2E/DX2                !
 ! A19   A(1,11,12)            109.4712         estimate D2E/DX2                !
 ! A20   A(1,11,13)            109.4712         estimate D2E/DX2                !
 ! A21   A(12,11,13)           109.4713         estimate D2E/DX2                !
 ! A22   L(2,1,10,3,-1)        180.0            estimate D2E/DX2                !
 ! A23   L(3,1,11,2,-1)        180.0            estimate D2E/DX2                !
 ! A24   L(8,1,9,2,-1)         180.0            estimate D2E/DX2                !
 ! A25   L(2,1,10,3,-2)        180.0            estimate D2E/DX2                !
 ! A26   L(3,1,11,2,-2)        180.0            estimate D2E/DX2                !
 ! A27   L(8,1,9,2,-2)         180.0            estimate D2E/DX2                !
 ! D1    D(3,1,2,4)            -82.6472         estimate D2E/DX2                !
 ! D2    D(3,1,2,5)            157.3528         estimate D2E/DX2                !
 ! D3    D(8,1,2,4)           -172.6472         estimate D2E/DX2                !
 ! D4    D(8,1,2,5)             67.3528         estimate D2E/DX2                !
 ! D5    D(9,1,2,4)              7.3528         estimate D2E/DX2                !
 ! D6    D(9,1,2,5)           -112.6472         estimate D2E/DX2                !
 ! D7    D(11,1,2,4)            97.3528         estimate D2E/DX2                !
 ! D8    D(11,1,2,5)           -22.6472         estimate D2E/DX2                !
 ! D9    D(2,1,3,6)             56.4594         estimate D2E/DX2                !
 ! D10   D(2,1,3,7)            -63.5406         estimate D2E/DX2                !
 ! D11   D(8,1,3,6)            146.4594         estimate D2E/DX2                !
 ! D12   D(8,1,3,7)             26.4594         estimate D2E/DX2                !
 ! D13   D(9,1,3,6)            -33.5406         estimate D2E/DX2                !
 ! D14   D(9,1,3,7)           -153.5406         estimate D2E/DX2                !
 ! D15   D(10,1,3,6)          -123.5406         estimate D2E/DX2                !
 ! D16   D(10,1,3,7)           116.4594         estimate D2E/DX2                !
 ! D17   D(6,3,11,12)            7.4596         estimate D2E/DX2                !
 ! D18   D(6,3,11,13)          127.4596         estimate D2E/DX2                !
 ! D19   D(7,3,11,12)         -112.5404         estimate D2E/DX2                !
 ! D20   D(7,3,11,13)            7.4596         estimate D2E/DX2                !
 ! D21   D(2,1,11,12)          -48.9998         estimate D2E/DX2                !
 ! D22   D(2,1,11,13)           71.0002         estimate D2E/DX2                !
 ! D23   D(8,1,11,12)         -138.9998         estimate D2E/DX2                !
 ! D24   D(8,1,11,13)          -18.9998         estimate D2E/DX2                !
 ! D25   D(9,1,11,12)           41.0002         estimate D2E/DX2                !
 ! D26   D(9,1,11,13)          161.0002         estimate D2E/DX2                !
 ! D27   D(10,1,11,12)         131.0002         estimate D2E/DX2                !
 ! D28   D(10,1,11,13)        -108.9998         estimate D2E/DX2                !
 --------------------------------------------------------------------------------
 Trust Radius=3.00D-01 FncErr=1.00D-07 GrdErr=1.00D-06
 Number of steps in this run=     77 maximum allowed number of steps=    100.
 GradGradGradGradGradGradGradGradGradGradGradGradGradGradGradGradGradGrad

                          Input orientation:                          
 ---------------------------------------------------------------------
 Center     Atomic      Atomic             Coordinates (Angstroms)
 Number     Number       Type             X           Y           Z
 ---------------------------------------------------------------------
      1         78           0       -0.319549    0.338346    0.000000
      2          7           0       -0.319549   -1.651654    0.000000
      3          7           0       -0.319549    0.338346    1.990000
      4          8           0        0.952128   -2.104987    0.164097
      5          8           0       -0.813275   -2.104987   -1.183353
      6          8           0        0.749175   -0.370116    2.443333
      7          8           0       -1.467457   -0.232965    2.443333
      8         35           0       -2.749549    0.338346    0.000000
      9         35           0        2.110451    0.338346    0.000000
     10         35           0       -0.319549    2.328346    0.000000
     11          7           0       -0.319549    0.338346   -1.990000
     12          8           0        0.648153   -0.502869   -2.443333
     13          8           0       -1.531913   -0.079100   -2.443333
 ---------------------------------------------------------------------
                    Distance matrix (angstroms):
                    1          2          3          4          5
     1  Pt   0.000000
     2  N    1.990000   0.000000
     3  N    1.990000   2.814285   0.000000
     4  O    2.759341   1.360000   3.304687   0.000000
     5  O    2.759341   1.360000   4.035320   2.220871   0.000000
     6  O    2.759341   2.958781   1.360000   2.871565   4.313221
     7  O    2.759341   3.049631   1.360000   3.814941   4.133433
     8  Br   2.430000   3.140860   3.140860   4.438380   3.334570
     9  Br   2.430000   3.140860   3.140860   2.708970   3.989784
    10  Br   1.990000   3.980000   2.814285   4.615033   4.615033
    11  N    1.990000   2.814285   3.980000   3.496737   2.619985
    12  O    2.759341   2.868105   4.615033   3.075366   2.508008
    13  O    2.759341   3.148433   4.615033   4.131993   2.491628
                    6          7          8          9         10
     6  O    0.000000
     7  O    2.220871   0.000000
     8  Br   4.325837   2.817806   0.000000
     9  Br   2.885284   4.370091   4.860000   0.000000
    10  Br   3.793909   3.721274   3.140860   3.140860   0.000000
    11  N    4.615033   4.615033   3.140860   3.140860   2.814285
    12  O    4.889512   5.331806   4.268711   2.969147   3.862914
    13  O    5.400700   4.889512   2.761661   4.405787   3.638063
                   11         12         13
    11  N    0.000000
    12  O    1.360000   0.000000
    13  O    1.360000   2.220871   0.000000
 Stoichiometry    Br3N3O6Pt(2-)
 Framework group  C1[X(Br3N3O6Pt)]
 Deg. of freedom    33
 Full point group                 C1      NOp   1
 Largest Abelian subgroup         C1      NOp   1
 Largest concise Abelian subgroup C1      NOp   1
                         Standard orientation:                         
 ---------------------------------------------------------------------
 Center     Atomic      Atomic             Coordinates (Angstroms)
 Number     Number       Type             X           Y           Z
 ---------------------------------------------------------------------
      1         78           0        0.014468   -0.029369    0.019907
      2          7           0       -0.166521    1.617947    1.121585
      3          7           0       -0.059713   -1.140488    1.669153
      4          8           0       -1.479387    1.831981    1.404732
      5          8           0        0.327697    2.680967    0.432138
      6          8           0       -1.204595   -0.865645    2.349820
      7          8           0        1.013777   -0.857842    2.454857
      8         35           0        2.432701    0.103647    0.218292
      9         35           0       -2.403765   -0.162384   -0.178477
     10         35           0        0.195458   -1.676684   -1.081770
     11          7           0        0.088650    1.081750   -1.629339
     12          8           0       -0.933975    1.978253   -1.618346
     13          8           0        1.274076    1.746793   -1.674968
 ---------------------------------------------------------------------
 Rotational constants (GHZ):      0.4603437      0.3284313      0.3072005
 General basis read from cards:  (5D, 7F)
 ======================================================================================================
                                       Pseudopotential Parameters
 ======================================================================================================
  Center     Atomic      Valence      Angular      Power
  Number     Number     Electrons     Momentum     of R      Exponent        Coefficient   SO-Coeffient
 ======================================================================================================
    1         78           18
                                      G and up 
                                                     1      728.9394056       -0.16192680    0.00000000
                                                     2      320.6567800    -1320.28738520    0.00000000
                                                     2       52.8680174     -298.31781350    0.00000000
                                                     2       12.0280128      -87.58370650    0.00000000
                                                     2        3.5238913       -8.14932740    0.00000000
                                      S - G
                                                     0      409.4437358        2.73342180    0.00000000
                                                     1      274.5419231       59.70243290    0.00000000
                                                     2      127.5658570      891.45895500    0.00000000
                                                     2       32.9036631      368.44676560    0.00000000
                                                     2        5.0593880      238.02630900    0.00000000
                                                     2        4.1506556     -107.05564540    0.00000000
                                      P - G
                                                     0      466.1728892        1.88785680    0.00000000
                                                     1      120.7888259       76.01386290    0.00000000
                                                     2       36.4118791      343.55111160    0.00000000
                                                     2        5.6985408      119.49117860    0.00000000
                                      D - G
                                                     0      249.5650763        2.93436780    0.00000000
                                                     1      126.6678585       59.33065710    0.00000000
                                                     2       63.1430586      452.44451940    0.00000000
                                                     2       17.9059470      210.47694790    0.00000000
                                                     2        4.2239373       58.62541120    0.00000000
                                      F - G
                                                     0      121.8158799        3.95342530    0.00000000
                                                     1       60.8757030       53.85551820    0.00000000
                                                     2       31.4767147      247.43051330    0.00000000
                                                     2        9.8811751      127.81879760    0.00000000
                                                     2        2.7319874       15.37720460    0.00000000
    2          7
                                   No pseudopotential on this center.
    3          7
                                   No pseudopotential on this center.
    4          8
                                   No pseudopotential on this center.
    5          8
                                   No pseudopotential on this center.
    6          8
                                   No pseudopotential on this center.
    7          8
                                   No pseudopotential on this center.
    8         35
                                   No pseudopotential on this center.
    9         35
                                   No pseudopotential on this center.
   10         35
                                   No pseudopotential on this center.
   11          7
                                   No pseudopotential on this center.
   12          8
                                   No pseudopotential on this center.
   13          8
                                   No pseudopotential on this center.
 ======================================================================================================
 There are   264 symmetry adapted cartesian basis functions of A   symmetry.
 There are   244 symmetry adapted basis functions of A   symmetry.
   244 basis functions,   508 primitive gaussians,   264 cartesian basis functions
    97 alpha electrons       97 beta electrons
       nuclear repulsion energy      2774.6663388199 Hartrees.
 NAtoms=   13 NActive=   13 NUniq=   13 SFac= 1.00D+00 NAtFMM=   60 NAOKFM=F Big=F
 Integral buffers will be    131072 words long.
 Raffenetti 2 integral format.
 Two-electron integral symmetry is turned on.
 ------------------------------------------------------------------------------
 Polarizable Continuum Model (PCM)
 =================================
 Model                : PCM (using non-symmetric T matrix).
 Atomic radii         : UFF (Universal Force Field).
 Polarization charges : Total charges.
 Charge compensation  : None.
 Solution method      : On-the-fly selection.
 Cavity type          : Scaled VdW (van der Waals Surface) (Alpha=1.100).
 Cavity algorithm     : GePol (No added spheres)
                        Default sphere list used, NSphG=   13.
                        Lebedev-Laikov grids with approx.  5.0 points / Ang**2.
                        Smoothing algorithm: Karplus/York (Gamma=1.0000).
                        Polarization charges: spherical gaussians, with
                                              point-specific exponents (IZeta= 3).
                        Self-potential: point-specific (ISelfS= 7).
                        Self-field    : sphere-specific E.n sum rule (ISelfD= 2).
 1st derivatives      : Analytical E(r).r(x)/FMM algorithm (CHGder, D1EAlg=3).
                        Cavity 1st derivative terms included.
 Solvent              : Water, Eps=  78.355300 Eps(inf)=   1.777849
 ------------------------------------------------------------------------------
 Spheres list:
 ISph  on   Nord     Re0    Alpha      Xe            Ye            Ze
    1  Pt      1    1.3770  1.100      0.014468     -0.029369      0.019907
    2   N      2    1.8300  1.100     -0.166521      1.617947      1.121585
    3   N      3    1.8300  1.100     -0.059713     -1.140488      1.669153
    4   O      4    1.7500  1.100     -1.479387      1.831981      1.404732
    5   O      5    1.7500  1.100      0.327697      2.680967      0.432138
    6   O      6    1.7500  1.100     -1.204595     -0.865645      2.349820
    7   O      7    1.7500  1.100      1.013777     -0.857842      2.454857
    8  Br      8    2.0945  1.100      2.432701      0.103647      0.218292
    9  Br      9    2.0945  1.100     -2.403765     -0.162384     -0.178477
   10  Br     10    2.0945  1.100      0.195458     -1.676684     -1.081770
   11   N     11    1.8300  1.100      0.088650      1.081750     -1.629339
   12   O     12    1.7500  1.100     -0.933975      1.978253     -1.618346
   13   O     13    1.7500  1.100      1.274076      1.746793     -1.674968
 ------------------------------------------------------------------------------
 One-electron integrals computed using PRISM.
   1 Symmetry operations used in ECPInt.
 ECPInt:  NShTT=    4851 NPrTT=   23253 LenC2=    4516 LenP2D=   14968.
 LDataN:  DoStor=T MaxTD1= 6 Len=  172
 NBasis=   244 RedAO= T EigKep=  1.71D-03  NBF=   244
 NBsUse=   244 1.00D-06 EigRej= -1.00D+00 NBFU=   244
 Defaulting to unpruned grid for atomic number  78.
 ExpMin= 2.90D-02 ExpMax= 1.13D+05 ExpMxC= 1.70D+04 IAcc=3 IRadAn=         5 AccDes= 0.00D+00
 Harris functional with IExCor=  402 and IRadAn=       5 diagonalized for initial guess.
 HarFok:  IExCor=  402 AccDes= 0.00D+00 IRadAn=         5 IDoV= 1 UseB2=F ITyADJ=14
 ICtDFT=  3500011 ScaDFX=  1.000000  1.000000  1.000000  1.000000
 Defaulting to unpruned grid for atomic number  78.
 Defaulting to unpruned grid for atomic number  78.
 Defaulting to unpruned grid for atomic number  78.
 Defaulting to unpruned grid for atomic number  78.
 Defaulting to unpruned grid for atomic number  78.
 Defaulting to unpruned grid for atomic number  78.
 Defaulting to unpruned grid for atomic number  78.
 Defaulting to unpruned grid for atomic number  78.
 FoFCou: FMM=F IPFlag=           0 FMFlag=      100000 FMFlg1=           0
         NFxFlg=           0 DoJE=T BraDBF=F KetDBF=T FulRan=T
         wScrn=  0.000000 ICntrl=     500 IOpCl=  0 I1Cent=   200000004 NGrid=           0
         NMat0=    1 NMatS0=      1 NMatT0=    0 NMatD0=    1 NMtDS0=    0 NMtDT0=    0
 Petite list used in FoFCou.
 Keep R1 ints in memory in canonical form, NReq=456257377.
 Requested convergence on RMS density matrix=1.00D-08 within 128 cycles.
 Requested convergence on MAX density matrix=1.00D-06.
 Requested convergence on             energy=1.00D-06.
 No special actions if energy rises.
 Defaulting to unpruned grid for atomic number  78.
 Defaulting to unpruned grid for atomic number  78.
 Defaulting to unpruned grid for atomic number  78.
 Defaulting to unpruned grid for atomic number  78.
 Defaulting to unpruned grid for atomic number  78.
 Defaulting to unpruned grid for atomic number  78.
 Defaulting to unpruned grid for atomic number  78.
 Defaulting to unpruned grid for atomic number  78.
 Inv3:  Mode=1 IEnd=     8426928.
 Iteration    1 A*A^-1 deviation from unit magnitude is 7.77D-15 for   1375.
 Iteration    1 A*A^-1 deviation from orthogonality  is 4.74D-15 for   1589    582.
 Iteration    1 A^-1*A deviation from unit magnitude is 6.11D-15 for   1089.
 Iteration    1 A^-1*A deviation from orthogonality  is 1.34D-13 for   1137   1114.
 EnCoef did     3 forward-backward iterations
 EnCoef did   100 forward-backward iterations
 EnCoef did   100 forward-backward iterations
 EnCoef did     2 forward-backward iterations
 EnCoef did     7 forward-backward iterations
 EnCoef did     3 forward-backward iterations
 EnCoef did     5 forward-backward iterations
 Error on total polarization charges =  0.01344
 SCF Done:  E(RB3LYP) =  -8455.65692530     A.U. after   25 cycles
            NFock= 25  Conv=0.59D-08     -V/T= 2.0112

 **********************************************************************

            Population analysis using the SCF density.

 **********************************************************************

 Orbital symmetries:
       Occupied  (A) (A) (A) (A) (A) (A) (A) (A) (A) (A) (A) (A)
                 (A) (A) (A) (A) (A) (A) (A) (A) (A) (A) (A) (A)
                 (A) (A) (A) (A) (A) (A) (A) (A) (A) (A) (A) (A)
                 (A) (A) (A) (A) (A) (A) (A) (A) (A) (A) (A) (A)
                 (A) (A) (A) (A) (A) (A) (A) (A) (A) (A) (A) (A)
                 (A) (A) (A) (A) (A) (A) (A) (A) (A) (A) (A) (A)
                 (A) (A) (A) (A) (A) (A) (A) (A) (A) (A) (A) (A)
                 (A) (A) (A) (A) (A) (A) (A) (A) (A) (A) (A) (A)
                 (A)
       Virtual   (A) (A) (A) (A) (A) (A) (A) (A) (A) (A) (A) (A)
                 (A) (A) (A) (A) (A) (A) (A) (A) (A) (A) (A) (A)
                 (A) (A) (A) (A) (A) (A) (A) (A) (A) (A) (A) (A)
                 (A) (A) (A) (A) (A) (A) (A) (A) (A) (A) (A) (A)
                 (A) (A) (A) (A) (A) (A) (A) (A) (A) (A) (A) (A)
                 (A) (A) (A) (A) (A) (A) (A) (A) (A) (A) (A) (A)
                 (A) (A) (A) (A) (A) (A) (A) (A) (A) (A) (A) (A)
                 (A) (A) (A) (A) (A) (A) (A) (A) (A) (A) (A) (A)
                 (A) (A) (A) (A) (A) (A) (A) (A) (A) (A) (A) (A)
                 (A) (A) (A) (A) (A) (A) (A) (A) (A) (A) (A) (A)
                 (A) (A) (A) (A) (A) (A) (A) (A) (A) (A) (A) (A)
                 (A) (A) (A) (A) (A) (A) (A) (A) (A) (A) (A) (A)
                 (A) (A) (A)
 The electronic state is 1-A.
 Alpha  occ. eigenvalues -- -482.75818-482.74182-482.74048 -62.44364 -62.42360
 Alpha  occ. eigenvalues --  -62.42233 -56.27507 -56.27209 -56.27205 -56.25568
 Alpha  occ. eigenvalues --  -56.25440 -56.25259 -56.25228 -56.25136 -56.25097
 Alpha  occ. eigenvalues --  -19.14624 -19.14612 -19.14422 -19.14305 -19.13209
 Alpha  occ. eigenvalues --  -19.12656 -14.49554 -14.48999 -14.46756  -8.66653
 Alpha  occ. eigenvalues --   -8.64155  -8.64032  -6.50118  -6.48667  -6.48650
 Alpha  occ. eigenvalues --   -6.47422  -6.47298  -6.46299  -6.46193  -6.46188
 Alpha  occ. eigenvalues --   -6.46061  -4.04190  -2.61694  -2.61149  -2.61136
 Alpha  occ. eigenvalues --   -2.59993  -2.59991  -2.58865  -2.58743  -2.58576
 Alpha  occ. eigenvalues --   -2.58492  -2.58460  -2.58361  -2.57608  -2.57606
 Alpha  occ. eigenvalues --   -2.57486  -2.57485  -2.26998  -2.25974  -2.24960
 Alpha  occ. eigenvalues --   -1.09667  -1.09078  -1.07385  -0.93325  -0.93094
 Alpha  occ. eigenvalues --   -0.91680  -0.79856  -0.73062  -0.71752  -0.67640
 Alpha  occ. eigenvalues --   -0.63898  -0.63404  -0.51411  -0.50417  -0.49360
 Alpha  occ. eigenvalues --   -0.47331  -0.47274  -0.46587  -0.45883  -0.44600
 Alpha  occ. eigenvalues --   -0.43320  -0.42230  -0.41123  -0.38849  -0.38377
 Alpha  occ. eigenvalues --   -0.37815  -0.31580  -0.29657  -0.28075  -0.27934
 Alpha  occ. eigenvalues --   -0.27502  -0.27165  -0.26665  -0.25473  -0.25156
 Alpha  occ. eigenvalues --   -0.25101  -0.24427  -0.23637  -0.23147  -0.22507
 Alpha  occ. eigenvalues --   -0.21368  -0.20695
 Alpha virt. eigenvalues --   -0.14704  -0.10456  -0.09286  -0.07466   0.01473
 Alpha virt. eigenvalues --    0.05518   0.05854   0.06581   0.17743   0.18437
 Alpha virt. eigenvalues --    0.19489   0.20104   0.20271   0.20759   0.21653
 Alpha virt. eigenvalues --    0.27406   0.28448   0.29601   0.35026   0.37919
 Alpha virt. eigenvalues --    0.38911   0.42278   0.44039   0.45845   0.49907
 Alpha virt. eigenvalues --    0.52266   0.52473   0.53211   0.53905   0.55394
 Alpha virt. eigenvalues --    0.55854   0.57417   0.58419   0.60015   0.60574
 Alpha virt. eigenvalues --    0.61858   0.62763   0.64703   0.64972   0.65504
 Alpha virt. eigenvalues --    0.69016   0.71652   0.74546   0.75990   0.80582
 Alpha virt. eigenvalues --    0.83980   0.84715   0.86049   0.86899   0.88787
 Alpha virt. eigenvalues --    0.89554   0.90518   0.90966   0.91841   0.93869
 Alpha virt. eigenvalues --    0.95708   0.96129   0.97347   0.99449   0.99999
 Alpha virt. eigenvalues --    1.00121   1.03186   1.04336   1.05093   1.06154
 Alpha virt. eigenvalues --    1.09586   1.13181   1.13840   1.15026   1.16204
 Alpha virt. eigenvalues --    1.16795   1.19050   1.21850   1.22720   1.24155
 Alpha virt. eigenvalues --    1.24730   1.29443   1.29894   1.32949   1.36003
 Alpha virt. eigenvalues --    1.40513   1.42107   1.43116   1.47527   1.54976
 Alpha virt. eigenvalues --    1.60410   1.90249   1.91390   1.96145   1.97199
 Alpha virt. eigenvalues --    2.00660   2.02838   2.05230   2.10245   2.25271
 Alpha virt. eigenvalues --    2.29965   2.33169   2.33924   2.34406   2.35166
 Alpha virt. eigenvalues --    2.37385   2.64725   2.65499   2.65809   2.66500
 Alpha virt. eigenvalues --    2.67033   2.67827   2.68995   2.69307   2.70514
 Alpha virt. eigenvalues --    2.71427   2.71683   2.73578   2.75685   2.76875
 Alpha virt. eigenvalues --    2.78000   2.96267   2.98342   3.01060   3.01549
 Alpha virt. eigenvalues --    3.02013   3.03405   3.21487   3.23088   3.24258
 Alpha virt. eigenvalues --    3.44323   3.46470   3.46836   3.47509   3.48011
 Alpha virt. eigenvalues --    3.48723   3.50393   3.52131   3.53574   3.58324
 Alpha virt. eigenvalues --    3.60065   3.61141   3.65087   3.66535   3.67858
 Alpha virt. eigenvalues --    3.69764   3.70901   3.74264   3.78588   3.84964
 Alpha virt. eigenvalues --    3.86055  10.16813
          Condensed to atoms (all electrons):
               1          2          3          4          5          6
     1  Pt  17.838529   0.101198   0.035723  -0.015776  -0.013731  -0.011618
     2  N    0.101198   6.594518   0.001038   0.170617   0.185290  -0.005015
     3  N    0.035723   0.001038   6.626080  -0.002233   0.000116   0.189194
     4  O   -0.015776   0.170617  -0.002233   8.235361  -0.092544   0.002844
     5  O   -0.013731   0.185290   0.000116  -0.092544   8.228436   0.000033
     6  O   -0.011618  -0.005015   0.189194   0.002844   0.000033   8.195978
     7  O   -0.005066  -0.003803   0.179131   0.000128   0.000002  -0.096668
     8  Br   0.228194  -0.022807  -0.019224   0.000623   0.000945   0.000394
     9  Br   0.249325  -0.022103  -0.013367  -0.024342   0.000930  -0.019952
    10  Br  -0.416953  -0.023884  -0.032383   0.000909   0.000762  -0.000569
    11  N    0.048816   0.002892  -0.005688  -0.000614  -0.026151   0.000110
    12  O   -0.005473  -0.010333   0.000116   0.000782   0.004774  -0.000003
    13  O   -0.009141  -0.002806   0.000116  -0.000021   0.001974   0.000000
               7          8          9         10         11         12
     1  Pt  -0.005066   0.228194   0.249325  -0.416953   0.048816  -0.005473
     2  N   -0.003803  -0.022807  -0.022103  -0.023884   0.002892  -0.010333
     3  N    0.179131  -0.019224  -0.013367  -0.032383  -0.005688   0.000116
     4  O    0.000128   0.000623  -0.024342   0.000909  -0.000614   0.000782
     5  O    0.000002   0.000945   0.000930   0.000762  -0.026151   0.004774
     6  O   -0.096668   0.000394  -0.019952  -0.000569   0.000110  -0.000003
     7  O    8.219558  -0.027212   0.000360  -0.001093   0.000106   0.000000
     8  Br  -0.027212  35.005970  -0.004080  -0.062979  -0.016059   0.000398
     9  Br   0.000360  -0.004080  34.982120  -0.094027  -0.016888  -0.013381
    10  Br  -0.001093  -0.062979  -0.094027  36.126332  -0.038212  -0.000860
    11  N    0.000106  -0.016059  -0.016888  -0.038212   6.628498   0.181554
    12  O    0.000000   0.000398  -0.013381  -0.000860   0.181554   8.195306
    13  O   -0.000002  -0.034626   0.000379  -0.003049   0.189581  -0.096877
              13
     1  Pt  -0.009141
     2  N   -0.002806
     3  N    0.000116
     4  O   -0.000021
     5  O    0.001974
     6  O    0.000000
     7  O   -0.000002
     8  Br  -0.034626
     9  Br   0.000379
    10  Br  -0.003049
    11  N    0.189581
    12  O   -0.096877
    13  O    8.187826
 Mulliken charges:
               1
     1  Pt  -0.024027
     2  N    0.035198
     3  N    0.041380
     4  O   -0.275735
     5  O   -0.290837
     6  O   -0.254729
     7  O   -0.265441
     8  Br  -0.049538
     9  Br  -0.024973
    10  Br  -0.453993
    11  N    0.052054
    12  O   -0.256003
    13  O   -0.233356
 Sum of Mulliken charges =  -2.00000
 Mulliken charges with hydrogens summed into heavy atoms:
               1
     1  Pt  -0.024027
     2  N    0.035198
     3  N    0.041380
     4  O   -0.275735
     5  O   -0.290837
     6  O   -0.254729
     7  O   -0.265441
     8  Br  -0.049538
     9  Br  -0.024973
    10  Br  -0.453993
    11  N    0.052054
    12  O   -0.256003
    13  O   -0.233356
 Electronic spatial extent (au):  <R**2>=           3928.2627
 Charge=             -2.0000 electrons
 Dipole moment (field-independent basis, Debye):
    X=              0.9059    Y=             -5.8944    Z=             -2.7069  Tot=              6.5492
 Quadrupole moment (field-independent basis, Debye-Ang):
   XX=           -160.4661   YY=           -161.6961   ZZ=           -157.7006
   XY=              1.5614   XZ=              2.8035   YZ=              5.2372
 Traceless Quadrupole moment (field-independent basis, Debye-Ang):
   XX=             -0.5118   YY=             -1.7419   ZZ=              2.2537
   XY=              1.5614   XZ=              2.8035   YZ=              5.2372
 Octapole moment (field-independent basis, Debye-Ang**2):
  XXX=              6.6838  YYY=            -89.9314  ZZZ=            -51.4538  XYY=              5.8042
  XXY=            -19.1820  XXZ=            -13.1271  XZZ=              5.6766  YZZ=            -13.2499
  YYZ=              1.1303  XYZ=              6.0843
 Hexadecapole moment (field-independent basis, Debye-Ang**3):
 XXXX=          -1783.2953 YYYY=          -1428.7743 ZZZZ=          -1277.6408 XXXY=             10.3026
 XXXZ=             23.4297 YYYX=             11.2317 YYYZ=             41.0029 ZZZX=             21.2623
 ZZZY=             81.2940 XXYY=           -540.0598 XXZZ=           -531.0348 YYZZ=           -447.6854
 XXYZ=             21.7828 YYXZ=             14.2179 ZZXY=              8.7532
 N-N= 2.774666338820D+03 E-N=-2.576079978125D+04  KE= 8.362076492841D+03
   1 Symmetry operations used in ECPInt.
 ECPInt:  NShTT=    4851 NPrTT=   23253 LenC2=    4516 LenP2D=   14968.
 LDataN:  DoStor=T MaxTD1= 7 Len=  274
 D1PCM: PCM CHGder 1st derivatives, ID1Alg=3 FixD1E=F DoIter=F DoCFld=F I1PDM=0.
 Calling FoFJK, ICntrl=      2127 FMM=F ISym2X=0 I1Cent= 0 IOpClX= 0 NMat=1 NMatS=1 NMatT=0.
 Defaulting to unpruned grid for atomic number  78.
 Defaulting to unpruned grid for atomic number  78.
 Defaulting to unpruned grid for atomic number  78.
 Defaulting to unpruned grid for atomic number  78.
 Defaulting to unpruned grid for atomic number  78.
 Defaulting to unpruned grid for atomic number  78.
 Defaulting to unpruned grid for atomic number  78.
 Defaulting to unpruned grid for atomic number  78.
 ***** Axes restored to original set *****
 -------------------------------------------------------------------
 Center     Atomic                   Forces (Hartrees/Bohr)
 Number     Number              X              Y              Z
 -------------------------------------------------------------------
      1       78          -0.009251776   -0.222830234    0.012979558
      2        7           0.097371986   -0.123899761   -0.126894017
      3        7          -0.011449939   -0.182115701    0.114326155
      4        8          -0.097646368    0.012478117    0.019492741
      5        8           0.005680609    0.009227829    0.096864450
      6        8          -0.063189037    0.077956898   -0.017870405
      7        8           0.073287975    0.069175604   -0.014586492
      8       35          -0.052074225    0.000738831    0.002427881
      9       35           0.053896764    0.012824673   -0.004327309
     10       35           0.002545180    0.366149618   -0.004510463
     11        7          -0.034527167   -0.172380166   -0.110677124
     12        8          -0.050177104    0.085150511    0.020073440
     13        8           0.085533103    0.067523783    0.012701584
 -------------------------------------------------------------------
 Cartesian Forces:  Max     0.366149618 RMS     0.099072875

 GradGradGradGradGradGradGradGradGradGradGradGradGradGradGradGradGradGrad
 Berny optimization.
 FormGI is forming the generalized inverse of G from B-inverse, IUseBI=4.
 Internal  Forces:  Max     0.366149096 RMS     0.059791704
 Search for a local minimum.
 Step number   1 out of a maximum of   77
 All quantities printed in internal units (Hartrees-Bohrs-Radians)
 Mixed Optimization -- RFO/linear search
 Second derivative matrix not updated -- first step.
 ITU=  0
     Eigenvalues ---    0.00230   0.00230   0.00230   0.03396   0.03426
     Eigenvalues ---    0.04734   0.06422   0.07119   0.08481   0.08487
     Eigenvalues ---    0.11967   0.12615   0.14009   0.16743   0.19509
     Eigenvalues ---    0.19509   0.20378   0.20378   0.20378   0.25000
     Eigenvalues ---    0.25000   0.25000   0.25000   0.25000   0.25000
     Eigenvalues ---    0.25000   0.52948   0.52948   0.52948   0.52948
     Eigenvalues ---    0.52948   0.52948   0.90956
 RFO step:  Lambda=-2.90851642D-01 EMin= 2.30000000D-03
 Linear search not attempted -- first point.
 Maximum step size (   0.300) exceeded in Quadratic search.
    -- Step size scaled by   0.507
 Iteration  1 RMS(Cart)=  0.07070236 RMS(Int)=  0.00163540
 Iteration  2 RMS(Cart)=  0.00209574 RMS(Int)=  0.00070184
 Iteration  3 RMS(Cart)=  0.00000515 RMS(Int)=  0.00070183
 Iteration  4 RMS(Cart)=  0.00000001 RMS(Int)=  0.00070183
 Variable       Old X    -DE/DX   Delta X   Delta X   Delta X     New X
                                 (Linear)    (Quad)   (Total)
    R1        3.76056   0.10219   0.00000   0.10482   0.10482   3.86538
    R2        3.76056   0.08187   0.00000   0.08399   0.08399   3.84454
    R3        4.59203   0.05208   0.00000   0.05438   0.05438   4.64641
    R4        4.59203   0.05389   0.00000   0.05627   0.05627   4.64831
    R5        3.76056   0.36615   0.00000   0.15477   0.15477   3.91532
    R6        3.76056   0.07790   0.00000   0.07991   0.07991   3.84046
    R7        2.57003  -0.09310   0.00000  -0.05759  -0.05759   2.51244
    R8        2.57003  -0.08942   0.00000  -0.05531  -0.05531   2.51472
    R9        2.57003  -0.09620   0.00000  -0.05950  -0.05950   2.51053
   R10        2.57003  -0.09580   0.00000  -0.05925  -0.05925   2.51077
   R11        2.57003  -0.09509   0.00000  -0.05882  -0.05882   2.51121
   R12        2.57003  -0.10118   0.00000  -0.06258  -0.06258   2.50744
    A1        1.57080  -0.02607   0.00000  -0.02705  -0.02704   1.54375
    A2        1.57080  -0.00420   0.00000  -0.00460  -0.00462   1.56617
    A3        1.57080   0.01199   0.00000   0.01573   0.01577   1.58656
    A4        1.57080   0.01055   0.00000   0.00887   0.00889   1.57969
    A5        1.57080  -0.00081   0.00000   0.00022   0.00022   1.57101
    A6        1.57080   0.00226   0.00000   0.00174   0.00198   1.57277
    A7        1.57080   0.01951   0.00000   0.01933   0.01933   1.59012
    A8        1.57080   0.00077   0.00000  -0.00020  -0.00020   1.57060
    A9        1.57080   0.00829   0.00000   0.00995   0.00993   1.58073
   A10        1.57080  -0.00856   0.00000  -0.01092  -0.01093   1.55986
   A11        1.57080  -0.00974   0.00000  -0.01191  -0.01192   1.55888
   A12        1.57080  -0.00399   0.00000  -0.00115  -0.00113   1.56967
   A13        1.91063   0.04462   0.00000   0.04852   0.04669   1.95732
   A14        1.91063   0.05017   0.00000   0.05373   0.05190   1.96253
   A15        1.91063  -0.01186   0.00000   0.00219  -0.00097   1.90967
   A16        1.91063   0.03221   0.00000   0.03495   0.03398   1.94461
   A17        1.91063   0.04089   0.00000   0.04309   0.04213   1.95276
   A18        1.91063  -0.01288   0.00000  -0.00263  -0.00436   1.90628
   A19        1.91063   0.02559   0.00000   0.02924   0.02813   1.93877
   A20        1.91063   0.05113   0.00000   0.05320   0.05211   1.96274
   A21        1.91063  -0.01227   0.00000  -0.00104  -0.00299   1.90764
   A22        3.14159  -0.00656   0.00000  -0.00773  -0.00771   3.13388
   A23        3.14159  -0.01552   0.00000  -0.01818  -0.01815   3.12344
   A24        3.14159   0.00778   0.00000   0.01112   0.01114   3.15274
   A25        3.14159   0.00343   0.00000   0.00480   0.00482   3.14641
   A26        3.14159   0.00748   0.00000   0.01017   0.01023   3.15182
   A27        3.14159  -0.00145   0.00000  -0.00196  -0.00189   3.13970
    D1       -1.44247   0.02279   0.00000   0.03468   0.03537  -1.40710
    D2        2.74632  -0.02074   0.00000  -0.03062  -0.03113   2.71520
    D3       -3.01326   0.02360   0.00000   0.03446   0.03503  -2.97823
    D4        1.17553  -0.01993   0.00000  -0.03084  -0.03147   1.14406
    D5        0.12833   0.02505   0.00000   0.03642   0.03692   0.16525
    D6       -1.96606  -0.01848   0.00000  -0.02888  -0.02958  -1.99564
    D7        1.69913   0.01531   0.00000   0.02451   0.02514   1.72427
    D8       -0.39527  -0.02822   0.00000  -0.04079  -0.04136  -0.43662
    D9        0.98540   0.01928   0.00000   0.02834   0.02875   1.01415
   D10       -1.10899  -0.00972   0.00000  -0.01624  -0.01652  -1.12551
   D11        2.55620   0.01508   0.00000   0.02373   0.02412   2.58032
   D12        0.46180  -0.01392   0.00000  -0.02084  -0.02115   0.44065
   D13       -0.58539   0.00730   0.00000   0.01261   0.01303  -0.57237
   D14       -2.67979  -0.02170   0.00000  -0.03197  -0.03224  -2.71203
   D15       -2.15619   0.01585   0.00000   0.02354   0.02392  -2.13227
   D16        2.03260  -0.01314   0.00000  -0.02104  -0.02134   2.01126
   D17        0.13019  -0.00091   0.00000  -0.00122  -0.00133   0.12886
   D18        2.22459   0.02681   0.00000   0.04313   0.04298   2.26757
   D19       -1.96420  -0.02530   0.00000  -0.04043  -0.04049  -2.00469
   D20        0.13019   0.00241   0.00000   0.00392   0.00382   0.13401
   D21       -0.85521  -0.01984   0.00000  -0.02912  -0.02940  -0.88461
   D22        1.23919   0.01211   0.00000   0.02010   0.02058   1.25977
   D23       -2.42600  -0.01564   0.00000  -0.02451  -0.02486  -2.45087
   D24       -0.33161   0.01631   0.00000   0.02470   0.02512  -0.30649
   D25        0.71559  -0.00785   0.00000  -0.01339  -0.01374   0.70185
   D26        2.80998   0.02409   0.00000   0.03583   0.03624   2.84623
   D27        2.28638  -0.01641   0.00000  -0.02431  -0.02466   2.26173
   D28       -1.90241   0.01553   0.00000   0.02490   0.02532  -1.87708
         Item               Value     Threshold  Converged?
 Maximum Force            0.366149     0.000450     NO 
 RMS     Force            0.059792     0.000300     NO 
 Maximum Displacement     0.209993     0.001800     NO 
 RMS     Displacement     0.069488     0.001200     NO 
 Predicted change in Energy=-1.263634D-01
 GradGradGradGradGradGradGradGradGradGradGradGradGradGradGradGradGradGrad

                          Input orientation:                          
 ---------------------------------------------------------------------
 Center     Atomic      Atomic             Coordinates (Angstroms)
 Number     Number       Type             X           Y           Z
 ---------------------------------------------------------------------
      1         78           0       -0.323675    0.346031   -0.008730
      2          7           0       -0.319874   -1.699392    0.004619
      3          7           0       -0.312789    0.304316    2.025256
      4          8           0        0.897081   -2.197046    0.202114
      5          8           0       -0.833544   -2.215692   -1.109123
      6          8           0        0.740965   -0.357014    2.491294
      7          8           0       -1.421884   -0.238777    2.515412
      8         35           0       -2.782368    0.330176    0.003571
      9         35           0        2.135663    0.389270   -0.025867
     10         35           0       -0.337429    2.417882   -0.006216
     11          7           0       -0.313694    0.350859   -2.040984
     12          8           0        0.649417   -0.431794   -2.516146
     13          8           0       -1.477900   -0.025422   -2.554456
 ---------------------------------------------------------------------
                    Distance matrix (angstroms):
                    1          2          3          4          5
     1  Pt   0.000000
     2  N    2.045470   0.000000
     3  N    2.034443   2.845676   0.000000
     4  O    2.828770   1.329527   3.323318   0.000000
     5  O    2.834300   1.330731   4.055363   2.171348   0.000000
     6  O    2.806751   3.018428   1.328513   2.941161   4.347041
     7  O    2.814135   3.106751   1.328644   3.816249   4.170323
     8  Br   2.458775   3.191085   3.191662   4.468178   3.393737
     9  Br   2.459778   3.223833   3.195190   2.876646   4.095786
    10  Br   2.071898   4.117325   2.931663   4.781734   4.788794
    11  N    2.032284   2.896214   4.066507   3.604065   2.779532
    12  O    2.799832   2.983385   4.700217   3.250598   2.713149
    13  O    2.819740   3.269872   4.737086   4.237354   2.702123
                    6          7          8          9         10
     6  O    0.000000
     7  O    2.166213   0.000000
     8  Br   4.367479   2.912726   0.000000
     9  Br   2.972914   4.416863   4.918475   0.000000
    10  Br   3.885941   3.820012   3.215018   3.198724   0.000000
    11  N    4.706903   4.726150   3.205461   3.171991   2.900591
    12  O    5.008835   5.444642   4.325127   3.014061   3.923553
    13  O    5.522039   5.074665   2.893370   4.429851   3.709978
                   11         12         13
    11  N    0.000000
    12  O    1.328876   0.000000
    13  O    1.326882   2.166123   0.000000
 Stoichiometry    Br3N3O6Pt(2-)
 Framework group  C1[X(Br3N3O6Pt)]
 Deg. of freedom    33
 Full point group                 C1      NOp   1
 Largest Abelian subgroup         C1      NOp   1
 Largest concise Abelian subgroup C1      NOp   1
                         Standard orientation:                         
 ---------------------------------------------------------------------
 Center     Atomic      Atomic             Coordinates (Angstroms)
 Number     Number       Type             X           Y           Z
 ---------------------------------------------------------------------
      1         78           0        0.014126   -0.016866    0.024635
      2          7           0       -0.142336    1.819780    0.911314
      3          7           0       -0.060582   -0.855977    1.876464
      4          8           0       -1.398317    2.116849    1.230541
      5          8           0        0.364508    2.792537    0.157858
      6          8           0       -1.174095   -0.518257    2.517543
      7          8           0        0.989867   -0.517554    2.616275
      8         35           0        2.463349    0.125810    0.187508
      9         35           0       -2.433556   -0.182161   -0.154350
     10         35           0        0.182003   -1.883610   -0.858453
     11          7           0        0.065237    0.853594   -1.811085
     12          8           0       -0.938845    1.710939   -1.961717
     13          8           0        1.213016    1.477035   -2.044631
 ---------------------------------------------------------------------
 Rotational constants (GHZ):      0.4317955      0.3179143      0.2977988
 Basis read from rwf:  (5D, 7F)
 Pseudo-potential data read from rwf file.
 There are   264 symmetry adapted cartesian basis functions of A   symmetry.
 There are   244 symmetry adapted basis functions of A   symmetry.
   244 basis functions,   508 primitive gaussians,   264 cartesian basis functions
    97 alpha electrons       97 beta electrons
       nuclear repulsion energy      2718.8745183170 Hartrees.
 NAtoms=   13 NActive=   13 NUniq=   13 SFac= 1.00D+00 NAtFMM=   60 NAOKFM=F Big=F
 Integral buffers will be    131072 words long.
 Raffenetti 2 integral format.
 Two-electron integral symmetry is turned on.
 ------------------------------------------------------------------------------
 Polarizable Continuum Model (PCM)
 =================================
 Model                : PCM (using non-symmetric T matrix).
 Atomic radii         : UFF (Universal Force Field).
 Polarization charges : Total charges.
 Charge compensation  : None.
 Solution method      : On-the-fly selection.
 Cavity type          : Scaled VdW (van der Waals Surface) (Alpha=1.100).
 Cavity algorithm     : GePol (No added spheres)
                        Default sphere list used, NSphG=   13.
                        Lebedev-Laikov grids with approx.  5.0 points / Ang**2.
                        Smoothing algorithm: Karplus/York (Gamma=1.0000).
                        Polarization charges: spherical gaussians, with
                                              point-specific exponents (IZeta= 3).
                        Self-potential: point-specific (ISelfS= 7).
                        Self-field    : sphere-specific E.n sum rule (ISelfD= 2).
 1st derivatives      : Analytical E(r).r(x)/FMM algorithm (CHGder, D1EAlg=3).
                        Cavity 1st derivative terms included.
 Solvent              : Water, Eps=  78.355300 Eps(inf)=   1.777849
 ------------------------------------------------------------------------------
 Spheres list:
 ISph  on   Nord     Re0    Alpha      Xe            Ye            Ze
    1  Pt      1    1.3770  1.100      0.014126     -0.016866      0.024635
    2   N      2    1.8300  1.100     -0.142336      1.819780      0.911314
    3   N      3    1.8300  1.100     -0.060582     -0.855977      1.876464
    4   O      4    1.7500  1.100     -1.398317      2.116849      1.230541
    5   O      5    1.7500  1.100      0.364508      2.792537      0.157858
    6   O      6    1.7500  1.100     -1.174095     -0.518257      2.517543
    7   O      7    1.7500  1.100      0.989867     -0.517554      2.616275
    8  Br      8    2.0945  1.100      2.463349      0.125810      0.187508
    9  Br      9    2.0945  1.100     -2.433556     -0.182161     -0.154350
   10  Br     10    2.0945  1.100      0.182003     -1.883610     -0.858453
   11   N     11    1.8300  1.100      0.065237      0.853594     -1.811085
   12   O     12    1.7500  1.100     -0.938845      1.710939     -1.961717
   13   O     13    1.7500  1.100      1.213016      1.477035     -2.044631
 ------------------------------------------------------------------------------
 One-electron integrals computed using PRISM.
   1 Symmetry operations used in ECPInt.
 ECPInt:  NShTT=    4851 NPrTT=   23253 LenC2=    4497 LenP2D=   14823.
 LDataN:  DoStor=T MaxTD1= 6 Len=  172
 NBasis=   244 RedAO= T EigKep=  2.16D-03  NBF=   244
 NBsUse=   244 1.00D-06 EigRej= -1.00D+00 NBFU=   244
 Defaulting to unpruned grid for atomic number  78.
 Initial guess from the checkpoint file:  "/home/scr/diego/Gau-19383.chk"
 B after Tr=     0.000000    0.000000    0.000000
         Rot=    0.997329    0.072819   -0.004593    0.003222 Ang=   8.38 deg.
 ExpMin= 2.90D-02 ExpMax= 1.13D+05 ExpMxC= 1.70D+04 IAcc=3 IRadAn=         5 AccDes= 0.00D+00
 Harris functional with IExCor=  402 and IRadAn=       5 diagonalized for initial guess.
 HarFok:  IExCor=  402 AccDes= 0.00D+00 IRadAn=         5 IDoV= 1 UseB2=F ITyADJ=14
 ICtDFT=  3500011 ScaDFX=  1.000000  1.000000  1.000000  1.000000
 Defaulting to unpruned grid for atomic number  78.
 Defaulting to unpruned grid for atomic number  78.
 Defaulting to unpruned grid for atomic number  78.
 Defaulting to unpruned grid for atomic number  78.
 Defaulting to unpruned grid for atomic number  78.
 Defaulting to unpruned grid for atomic number  78.
 Defaulting to unpruned grid for atomic number  78.
 Defaulting to unpruned grid for atomic number  78.
 FoFCou: FMM=F IPFlag=           0 FMFlag=      100000 FMFlg1=           0
         NFxFlg=           0 DoJE=T BraDBF=F KetDBF=T FulRan=T
         wScrn=  0.000000 ICntrl=     500 IOpCl=  0 I1Cent=   200000004 NGrid=           0
         NMat0=    1 NMatS0=      1 NMatT0=    0 NMatD0=    1 NMtDS0=    0 NMtDT0=    0
 Petite list used in FoFCou.
 Keep R1 ints in memory in canonical form, NReq=456257377.
 Requested convergence on RMS density matrix=1.00D-08 within 128 cycles.
 Requested convergence on MAX density matrix=1.00D-06.
 Requested convergence on             energy=1.00D-06.
 No special actions if energy rises.
 Defaulting to unpruned grid for atomic number  78.
 Defaulting to unpruned grid for atomic number  78.
 Defaulting to unpruned grid for atomic number  78.
 Defaulting to unpruned grid for atomic number  78.
 Defaulting to unpruned grid for atomic number  78.
 Defaulting to unpruned grid for atomic number  78.
 Defaulting to unpruned grid for atomic number  78.
 Defaulting to unpruned grid for atomic number  78.
 Inv3:  Mode=1 IEnd=     8885523.
 Iteration    1 A*A^-1 deviation from unit magnitude is 6.66D-15 for    751.
 Iteration    1 A*A^-1 deviation from orthogonality  is 4.78D-15 for   1398   1023.
 Iteration    1 A^-1*A deviation from unit magnitude is 6.88D-15 for     64.
 Iteration    1 A^-1*A deviation from orthogonality  is 3.07D-10 for   1214   1197.
 Iteration    2 A*A^-1 deviation from unit magnitude is 9.99D-15 for     76.
 Iteration    2 A*A^-1 deviation from orthogonality  is 4.00D-15 for    954    526.
 Iteration    2 A^-1*A deviation from unit magnitude is 1.78D-15 for    201.
 Iteration    2 A^-1*A deviation from orthogonality  is 4.99D-16 for    879     46.
 Error on total polarization charges =  0.01271
 SCF Done:  E(RB3LYP) =  -8455.78292484     A.U. after   19 cycles
            NFock= 19  Conv=0.37D-08     -V/T= 2.0112
   1 Symmetry operations used in ECPInt.
 ECPInt:  NShTT=    4851 NPrTT=   23253 LenC2=    4497 LenP2D=   14823.
 LDataN:  DoStor=T MaxTD1= 7 Len=  274
 D1PCM: PCM CHGder 1st derivatives, ID1Alg=3 FixD1E=F DoIter=F DoCFld=F I1PDM=0.
 Calling FoFJK, ICntrl=      2127 FMM=F ISym2X=0 I1Cent= 0 IOpClX= 0 NMat=1 NMatS=1 NMatT=0.
 Defaulting to unpruned grid for atomic number  78.
 Defaulting to unpruned grid for atomic number  78.
 Defaulting to unpruned grid for atomic number  78.
 Defaulting to unpruned grid for atomic number  78.
 Defaulting to unpruned grid for atomic number  78.
 Defaulting to unpruned grid for atomic number  78.
 Defaulting to unpruned grid for atomic number  78.
 Defaulting to unpruned grid for atomic number  78.
 ***** Axes restored to original set *****
 -------------------------------------------------------------------
 Center     Atomic                   Forces (Hartrees/Bohr)
 Number     Number              X              Y              Z
 -------------------------------------------------------------------
      1       78          -0.005801482   -0.142654067    0.014492683
      2        7           0.092050364   -0.109838701   -0.116824239
      3        7          -0.007785823   -0.171696738    0.097333652
      4        8          -0.081530949    0.022560099    0.024875018
      5        8          -0.003238166    0.025192644    0.080414697
      6        8          -0.045702536    0.073614429   -0.023200709
      7        8           0.052813667    0.067880439   -0.021829384
      8       35          -0.037709705    0.000594167    0.001252060
      9       35           0.038410007    0.009724560   -0.002465316
     10       35          -0.000264641    0.248589408   -0.002589188
     11        7          -0.030947405   -0.166849231   -0.101138509
     12        8          -0.034118120    0.077007429    0.025001194
     13        8           0.063824790    0.065875563    0.024678041
 -------------------------------------------------------------------
 Cartesian Forces:  Max     0.248589408 RMS     0.079286950

 GradGradGradGradGradGradGradGradGradGradGradGradGradGradGradGradGradGrad
 Berny optimization.
 Using GEDIIS/GDIIS optimizer.
 FormGI is forming the generalized inverse of G from B-inverse, IUseBI=4.
 Internal  Forces:  Max     0.248581095 RMS     0.043118443
 Search for a local minimum.
 Step number   2 out of a maximum of   77
 All quantities printed in internal units (Hartrees-Bohrs-Radians)
 Mixed Optimization -- RFO/linear search
 Update second derivatives using D2CorX and points    1    2
 DE= -1.26D-01 DEPred=-1.26D-01 R= 9.97D-01
 TightC=F SS=  1.41D+00  RLast= 3.34D-01 DXNew= 5.0454D-01 1.0008D+00
 Trust test= 9.97D-01 RLast= 3.34D-01 DXMaxT set to 5.05D-01
 ITU=  1  0
 Use linear search instead of GDIIS.
 Linear search step of   0.598 exceeds DXMaxT=   0.505 but not scaled.
 Quartic linear search produced a step of  2.00000.
 Iteration  1 RMS(Cart)=  0.13084425 RMS(Int)=  0.01532400
 Iteration  2 RMS(Cart)=  0.01465905 RMS(Int)=  0.00383614
 Iteration  3 RMS(Cart)=  0.00007293 RMS(Int)=  0.00383579
 Iteration  4 RMS(Cart)=  0.00000073 RMS(Int)=  0.00383579
 Variable       Old X    -DE/DX   Delta X   Delta X   Delta X     New X
                                 (Linear)    (Quad)   (Total)
    R1        3.86538   0.06200   0.20964   0.00000   0.20964   4.07502
    R2        3.84454   0.05291   0.16797   0.00000   0.16797   4.01251
    R3        4.64641   0.03772   0.10875   0.00000   0.10875   4.75517
    R4        4.64831   0.03858   0.11254   0.00000   0.11254   4.76085
    R5        3.91532   0.24858   0.30953   0.00000   0.30953   4.22485
    R6        3.84046   0.05139   0.15981   0.00000   0.15981   4.00027
    R7        2.51244  -0.07935  -0.11517   0.00000  -0.11517   2.39727
    R8        2.51472  -0.07583  -0.11062   0.00000  -0.11062   2.40410
    R9        2.51053  -0.08105  -0.11900   0.00000  -0.11900   2.39152
   R10        2.51077  -0.07985  -0.11851   0.00000  -0.11851   2.39227
   R11        2.51121  -0.07902  -0.11763   0.00000  -0.11763   2.39358
   R12        2.50744  -0.08425  -0.12517   0.00000  -0.12517   2.38228
    A1        1.54375  -0.01592  -0.05408   0.00000  -0.05383   1.48993
    A2        1.56617  -0.00258  -0.00925   0.00000  -0.00933   1.55684
    A3        1.58656   0.00834   0.03153   0.00000   0.03173   1.61829
    A4        1.57969  -0.00491   0.01779   0.00000   0.01803   1.59771
    A5        1.57101  -0.00034   0.00043   0.00000   0.00040   1.57141
    A6        1.57277   0.00151   0.00395   0.00000   0.00537   1.57814
    A7        1.59012   0.01600   0.03865   0.00000   0.03850   1.62862
    A8        1.57060   0.00020  -0.00039   0.00000  -0.00036   1.57024
    A9        1.58073   0.00336   0.01986   0.00000   0.01974   1.60047
   A10        1.55986  -0.00595  -0.02187   0.00000  -0.02192   1.53795
   A11        1.55888  -0.00420  -0.02384   0.00000  -0.02390   1.53498
   A12        1.56967   0.00487  -0.00226   0.00000  -0.00231   1.56736
   A13        1.95732   0.02413   0.09337   0.00000   0.08186   2.03918
   A14        1.96253   0.01585   0.10380   0.00000   0.09238   2.05491
   A15        1.90967   0.00726  -0.00194   0.00000  -0.01798   1.89169
   A16        1.94461   0.01492   0.06795   0.00000   0.06185   2.00646
   A17        1.95276   0.02091   0.08426   0.00000   0.07831   2.03107
   A18        1.90628   0.00394  -0.00871   0.00000  -0.01777   1.88850
   A19        1.93877   0.01200   0.05627   0.00000   0.04927   1.98803
   A20        1.96274   0.02459   0.10422   0.00000   0.09742   2.06016
   A21        1.90764   0.00468  -0.00598   0.00000  -0.01615   1.89149
   A22        3.13388   0.00008  -0.01543   0.00000  -0.01533   3.11855
   A23        3.12344  -0.02083  -0.03630   0.00000  -0.03580   3.08764
   A24        3.15274   0.00576   0.02229   0.00000   0.02240   3.17513
   A25        3.14641   0.00239   0.00964   0.00000   0.00975   3.15617
   A26        3.15182   0.00316   0.02046   0.00000   0.02083   3.17265
   A27        3.13970  -0.00084  -0.00378   0.00000  -0.00339   3.13631
    D1       -1.40710   0.02096   0.07074   0.00000   0.07379  -1.33331
    D2        2.71520  -0.01939  -0.06225   0.00000  -0.06419   2.65101
    D3       -2.97823   0.02116   0.07006   0.00000   0.07238  -2.90586
    D4        1.14406  -0.01919  -0.06293   0.00000  -0.06560   1.07847
    D5        0.16525   0.02200   0.07384   0.00000   0.07576   0.24101
    D6       -1.99564  -0.01835  -0.05915   0.00000  -0.06221  -2.05785
    D7        1.72427   0.01780   0.05028   0.00000   0.05295   1.77722
    D8       -0.43662  -0.02255  -0.08271   0.00000  -0.08502  -0.52164
    D9        1.01415   0.01875   0.05749   0.00000   0.05959   1.07374
   D10       -1.12551  -0.01232  -0.03304   0.00000  -0.03442  -1.15993
   D11        2.58032   0.01617   0.04823   0.00000   0.05017   2.63049
   D12        0.44065  -0.01490  -0.04230   0.00000  -0.04384   0.39681
   D13       -0.57237   0.01047   0.02606   0.00000   0.02826  -0.54411
   D14       -2.71203  -0.02059  -0.06448   0.00000  -0.06575  -2.77778
   D15       -2.13227   0.01636   0.04785   0.00000   0.04984  -2.08243
   D16        2.01126  -0.01470  -0.04269   0.00000  -0.04417   1.96708
   D17        0.12886  -0.00053  -0.00266   0.00000  -0.00330   0.12556
   D18        2.26757   0.02494   0.08596   0.00000   0.08445   2.35202
   D19       -2.00469  -0.02409  -0.08098   0.00000  -0.08077  -2.08546
   D20        0.13401   0.00138   0.00764   0.00000   0.00699   0.14100
   D21       -0.88461  -0.01872  -0.05879   0.00000  -0.06006  -0.94467
   D22        1.25977   0.01412   0.04117   0.00000   0.04370   1.30347
   D23       -2.45087  -0.01612  -0.04973   0.00000  -0.05143  -2.50230
   D24       -0.30649   0.01672   0.05024   0.00000   0.05234  -0.25416
   D25        0.70185  -0.01036  -0.02747   0.00000  -0.02915   0.67270
   D26        2.84623   0.02248   0.07249   0.00000   0.07462   2.92084
   D27        2.26173  -0.01636  -0.04931   0.00000  -0.05098   2.21075
   D28       -1.87708   0.01648   0.05065   0.00000   0.05279  -1.82429
         Item               Value     Threshold  Converged?
 Maximum Force            0.248581     0.000450     NO 
 RMS     Force            0.043118     0.000300     NO 
 Maximum Displacement     0.378472     0.001800     NO 
 RMS     Displacement     0.131368     0.001200     NO 
 Predicted change in Energy=-1.304775D-01
 GradGradGradGradGradGradGradGradGradGradGradGradGradGradGradGradGradGrad

                          Input orientation:                          
 ---------------------------------------------------------------------
 Center     Atomic      Atomic             Coordinates (Angstroms)
 Number     Number       Type             X           Y           Z
 ---------------------------------------------------------------------
      1         78           0       -0.332584    0.359413   -0.027942
      2          7           0       -0.323354   -1.796501    0.017354
      3          7           0       -0.297793    0.232525    2.091305
      4          8           0        0.783412   -2.359119    0.277795
      5          8           0       -0.867231   -2.411495   -0.954477
      6          8           0        0.720929   -0.341524    2.575315
      7          8           0       -1.326888   -0.257360    2.642268
      8         35           0       -2.848232    0.314296    0.009099
      9         35           0        2.182890    0.488724   -0.080041
     10         35           0       -0.373848    2.594721   -0.022879
     11          7           0       -0.301153    0.372066   -2.144525
     12          8           0        0.647835   -0.299118   -2.647793
     13          8           0       -1.364015    0.076768   -2.754735
 ---------------------------------------------------------------------
                    Distance matrix (angstroms):
                    1          2          3          4          5
     1  Pt   0.000000
     2  N    2.156409   0.000000
     3  N    2.123328   2.901529   0.000000
     4  O    2.954545   1.268582   3.342819   0.000000
     5  O    2.970226   1.272193   4.073314   2.060548   0.000000
     6  O    2.894503   3.122603   1.265540   3.058299   4.389358
     7  O    2.915317   3.204092   1.265932   3.802826   4.217601
     8  Br   2.516325   3.290978   3.293480   4.517541   3.504679
     9  Br   2.519334   3.393081   3.306686   3.193243   4.298738
    10  Br   2.235695   4.391696   3.171046   5.096095   5.116004
    11  N    2.116854   3.062171   4.238130   3.808318   3.079751
    12  O    2.873760   3.207549   4.861677   3.580649   3.102398
    13  O    2.929016   3.503796   4.964393   4.443110   3.111137
                    6          7          8          9         10
     6  O    0.000000
     7  O    2.050639   0.000000
     8  Br   4.444600   3.094327   0.000000
     9  Br   3.142858   4.504015   5.034934   0.000000
    10  Br   4.070710   4.018167   3.365106   3.312914   0.000000
    11  N    4.881675   4.935757   3.336022   3.232054   3.073575
    12  O    5.223791   5.646770   4.433716   3.093612   4.038355
    13  O    5.738588   5.407464   3.146124   4.461416   3.844938
                   11         12         13
    11  N    0.000000
    12  O    1.266627   0.000000
    13  O    1.260647   2.049455   0.000000
 Stoichiometry    Br3N3O6Pt(2-)
 Framework group  C1[X(Br3N3O6Pt)]
 Deg. of freedom    33
 Full point group                 C1      NOp   1
 Largest Abelian subgroup         C1      NOp   1
 Largest concise Abelian subgroup C1      NOp   1
                         Standard orientation:                         
 ---------------------------------------------------------------------
 Center     Atomic      Atomic             Coordinates (Angstroms)
 Number     Number       Type             X           Y           Z
 ---------------------------------------------------------------------
      1         78           0        0.014494    0.011710    0.023223
      2          7           0       -0.057658    2.155804    0.241750
      3          7           0       -0.040760   -0.033928    2.145342
      4          8           0       -1.182315    2.664028    0.535271
      5          8           0        0.475827    2.862380   -0.671825
      6          8           0       -1.079516    0.470128    2.663516
      7          8           0        0.969286    0.438796    2.744444
      8         35           0        2.527400    0.124833    0.089531
      9         35           0       -2.495676   -0.184079   -0.064865
     10         35           0        0.120570   -2.214647   -0.151170
     11          7           0        0.000219    0.169075   -2.087725
     12          8           0       -0.963829    0.851581   -2.545045
     13          8           0        1.058866    0.542616   -2.661281
 ---------------------------------------------------------------------
 Rotational constants (GHZ):      0.3843129      0.3006191      0.2787948
 Basis read from rwf:  (5D, 7F)
 Pseudo-potential data read from rwf file.
 There are   264 symmetry adapted cartesian basis functions of A   symmetry.
 There are   244 symmetry adapted basis functions of A   symmetry.
   244 basis functions,   508 primitive gaussians,   264 cartesian basis functions
    97 alpha electrons       97 beta electrons
       nuclear repulsion energy      2621.1175360147 Hartrees.
 NAtoms=   13 NActive=   13 NUniq=   13 SFac= 1.00D+00 NAtFMM=   60 NAOKFM=F Big=F
 Integral buffers will be    131072 words long.
 Raffenetti 2 integral format.
 Two-electron integral symmetry is turned on.
 ------------------------------------------------------------------------------
 Polarizable Continuum Model (PCM)
 =================================
 Model                : PCM (using non-symmetric T matrix).
 Atomic radii         : UFF (Universal Force Field).
 Polarization charges : Total charges.
 Charge compensation  : None.
 Solution method      : On-the-fly selection.
 Cavity type          : Scaled VdW (van der Waals Surface) (Alpha=1.100).
 Cavity algorithm     : GePol (No added spheres)
                        Default sphere list used, NSphG=   13.
                        Lebedev-Laikov grids with approx.  5.0 points / Ang**2.
                        Smoothing algorithm: Karplus/York (Gamma=1.0000).
                        Polarization charges: spherical gaussians, with
                                              point-specific exponents (IZeta= 3).
                        Self-potential: point-specific (ISelfS= 7).
                        Self-field    : sphere-specific E.n sum rule (ISelfD= 2).
 1st derivatives      : Analytical E(r).r(x)/FMM algorithm (CHGder, D1EAlg=3).
                        Cavity 1st derivative terms included.
 Solvent              : Water, Eps=  78.355300 Eps(inf)=   1.777849
 ------------------------------------------------------------------------------
 Spheres list:
 ISph  on   Nord     Re0    Alpha      Xe            Ye            Ze
    1  Pt      1    1.3770  1.100      0.014494      0.011710      0.023223
    2   N      2    1.8300  1.100     -0.057658      2.155804      0.241750
    3   N      3    1.8300  1.100     -0.040760     -0.033928      2.145342
    4   O      4    1.7500  1.100     -1.182315      2.664028      0.535271
    5   O      5    1.7500  1.100      0.475827      2.862380     -0.671825
    6   O      6    1.7500  1.100     -1.079516      0.470128      2.663516
    7   O      7    1.7500  1.100      0.969286      0.438796      2.744444
    8  Br      8    2.0945  1.100      2.527400      0.124833      0.089531
    9  Br      9    2.0945  1.100     -2.495676     -0.184079     -0.064865
   10  Br     10    2.0945  1.100      0.120570     -2.214647     -0.151170
   11   N     11    1.8300  1.100      0.000219      0.169075     -2.087725
   12   O     12    1.7500  1.100     -0.963829      0.851581     -2.545045
   13   O     13    1.7500  1.100      1.058866      0.542616     -2.661281
 ------------------------------------------------------------------------------
 One-electron integrals computed using PRISM.
   1 Symmetry operations used in ECPInt.
 ECPInt:  NShTT=    4851 NPrTT=   23253 LenC2=    4457 LenP2D=   14574.
 LDataN:  DoStor=T MaxTD1= 6 Len=  172
 NBasis=   244 RedAO= T EigKep=  3.47D-03  NBF=   244
 NBsUse=   244 1.00D-06 EigRej= -1.00D+00 NBFU=   244
 Defaulting to unpruned grid for atomic number  78.
 Initial guess from the checkpoint file:  "/home/scr/diego/Gau-19383.chk"
 B after Tr=     0.000000    0.000000    0.000000
         Rot=    0.983533    0.179749   -0.012530    0.013996 Ang=  20.82 deg.
 ExpMin= 2.90D-02 ExpMax= 1.13D+05 ExpMxC= 1.70D+04 IAcc=3 IRadAn=         5 AccDes= 0.00D+00
 Harris functional with IExCor=  402 and IRadAn=       5 diagonalized for initial guess.
 HarFok:  IExCor=  402 AccDes= 0.00D+00 IRadAn=         5 IDoV= 1 UseB2=F ITyADJ=14
 ICtDFT=  3500011 ScaDFX=  1.000000  1.000000  1.000000  1.000000
 Defaulting to unpruned grid for atomic number  78.
 Defaulting to unpruned grid for atomic number  78.
 Defaulting to unpruned grid for atomic number  78.
 Defaulting to unpruned grid for atomic number  78.
 Defaulting to unpruned grid for atomic number  78.
 Defaulting to unpruned grid for atomic number  78.
 Defaulting to unpruned grid for atomic number  78.
 Defaulting to unpruned grid for atomic number  78.
 FoFCou: FMM=F IPFlag=           0 FMFlag=      100000 FMFlg1=           0
         NFxFlg=           0 DoJE=T BraDBF=F KetDBF=T FulRan=T
         wScrn=  0.000000 ICntrl=     500 IOpCl=  0 I1Cent=   200000004 NGrid=           0
         NMat0=    1 NMatS0=      1 NMatT0=    0 NMatD0=    1 NMtDS0=    0 NMtDT0=    0
 Petite list used in FoFCou.
 Keep R1 ints in memory in canonical form, NReq=456257377.
 Requested convergence on RMS density matrix=1.00D-08 within 128 cycles.
 Requested convergence on MAX density matrix=1.00D-06.
 Requested convergence on             energy=1.00D-06.
 No special actions if energy rises.
 Defaulting to unpruned grid for atomic number  78.
 Defaulting to unpruned grid for atomic number  78.
 Defaulting to unpruned grid for atomic number  78.
 Defaulting to unpruned grid for atomic number  78.
 Defaulting to unpruned grid for atomic number  78.
 Defaulting to unpruned grid for atomic number  78.
 Defaulting to unpruned grid for atomic number  78.
 Defaulting to unpruned grid for atomic number  78.
 Inv3:  Mode=1 IEnd=     9806592.
 Iteration    1 A*A^-1 deviation from unit magnitude is 6.66D-15 for    736.
 Iteration    1 A*A^-1 deviation from orthogonality  is 4.29D-15 for    749    576.
 Iteration    1 A^-1*A deviation from unit magnitude is 6.77D-15 for    715.
 Iteration    1 A^-1*A deviation from orthogonality  is 8.82D-14 for    925    900.
 Error on total polarization charges =  0.01173
 SCF Done:  E(RB3LYP) =  -8455.92561626     A.U. after   16 cycles
            NFock= 16  Conv=0.97D-08     -V/T= 2.0113
   1 Symmetry operations used in ECPInt.
 ECPInt:  NShTT=    4851 NPrTT=   23253 LenC2=    4457 LenP2D=   14574.
 LDataN:  DoStor=T MaxTD1= 7 Len=  274
 D1PCM: PCM CHGder 1st derivatives, ID1Alg=3 FixD1E=F DoIter=F DoCFld=F I1PDM=0.
 Calling FoFJK, ICntrl=      2127 FMM=F ISym2X=0 I1Cent= 0 IOpClX= 0 NMat=1 NMatS=1 NMatT=0.
 Defaulting to unpruned grid for atomic number  78.
 Defaulting to unpruned grid for atomic number  78.
 Defaulting to unpruned grid for atomic number  78.
 Defaulting to unpruned grid for atomic number  78.
 Defaulting to unpruned grid for atomic number  78.
 Defaulting to unpruned grid for atomic number  78.
 Defaulting to unpruned grid for atomic number  78.
 Defaulting to unpruned grid for atomic number  78.
 ***** Axes restored to original set *****
 -------------------------------------------------------------------
 Center     Atomic                   Forces (Hartrees/Bohr)
 Number     Number              X              Y              Z
 -------------------------------------------------------------------
      1       78          -0.003071906   -0.054554495    0.014541835
      2        7           0.070344512   -0.081423568   -0.088192110
      3        7          -0.002580274   -0.134072385    0.066820365
      4        8          -0.024314084    0.032991022    0.044073318
      5        8          -0.037047029    0.036110852    0.032149297
      6        8           0.013548903    0.056921608   -0.027124381
      7        8          -0.011790615    0.057462653   -0.025149982
      8       35          -0.014300741   -0.000298680   -0.000615816
      9       35           0.014942000    0.002934254    0.000609166
     10       35          -0.002035817    0.106261780   -0.000839434
     11        7          -0.017805536   -0.131212614   -0.075374312
     12        8           0.020657919    0.049455733    0.029301308
     13        8          -0.006547332    0.059423841    0.029800745
 -------------------------------------------------------------------
 Cartesian Forces:  Max     0.134072385 RMS     0.051567014

 GradGradGradGradGradGradGradGradGradGradGradGradGradGradGradGradGradGrad
 Berny optimization.
 Using GEDIIS/GDIIS optimizer.
 FormGI is forming the generalized inverse of G from B-inverse, IUseBI=4.
 Internal  Forces:  Max     0.106279489 RMS     0.022638599
 Search for a local minimum.
 Step number   3 out of a maximum of   77
 All quantities printed in internal units (Hartrees-Bohrs-Radians)
 Mixed Optimization -- RFO/linear search
 Update second derivatives using D2CorX and points    2    3
 ITU=  0  1  0
 Use linear search instead of GDIIS.
     Eigenvalues ---    0.00230   0.00230   0.00230   0.01977   0.02068
     Eigenvalues ---    0.02427   0.06384   0.07091   0.08464   0.08539
     Eigenvalues ---    0.11213   0.12581   0.14009   0.16818   0.18636
     Eigenvalues ---    0.19509   0.19776   0.20378   0.20385   0.24822
     Eigenvalues ---    0.24955   0.24992   0.24993   0.24999   0.25000
     Eigenvalues ---    0.30965   0.50795   0.52948   0.52948   0.52948
     Eigenvalues ---    0.52948   0.53194   0.67749
 RFO step:  Lambda=-1.31968822D-01 EMin= 2.29999386D-03
 Quartic linear search produced a step of  0.66361.
 Iteration  1 RMS(Cart)=  0.08058990 RMS(Int)=  0.01323868
 Iteration  2 RMS(Cart)=  0.01048860 RMS(Int)=  0.00413505
 Iteration  3 RMS(Cart)=  0.00011682 RMS(Int)=  0.00413422
 Iteration  4 RMS(Cart)=  0.00000071 RMS(Int)=  0.00413422
 Variable       Old X    -DE/DX   Delta X   Delta X   Delta X     New X
                                 (Linear)    (Quad)   (Total)
    R1        4.07502   0.01211   0.13912  -0.00448   0.13464   4.20966
    R2        4.01251   0.01568   0.11147   0.01830   0.12976   4.14227
    R3        4.75517   0.01429   0.07217   0.02562   0.09779   4.85296
    R4        4.76085   0.01506   0.07469   0.02845   0.10313   4.86398
    R5        4.22485   0.10628   0.20541   0.07511   0.28052   4.50537
    R6        4.00027   0.01608   0.10605   0.02106   0.12711   4.12739
    R7        2.39727  -0.02681  -0.07643  -0.01784  -0.09427   2.30301
    R8        2.40410  -0.02617  -0.07341  -0.01833  -0.09174   2.31235
    R9        2.39152  -0.02528  -0.07897  -0.01365  -0.09262   2.29890
   R10        2.39227  -0.02361  -0.07864  -0.01071  -0.08935   2.30292
   R11        2.39358  -0.02237  -0.07806  -0.00842  -0.08648   2.30710
   R12        2.38228  -0.02283  -0.08306  -0.00665  -0.08971   2.29257
    A1        1.48993  -0.00520  -0.03572  -0.01689  -0.05272   1.43721
    A2        1.55684  -0.00011  -0.00619   0.00229  -0.00398   1.55286
[...]
 Number     Number              X              Y              Z
 -------------------------------------------------------------------
      1       78          -0.000002031   -0.000013467   -0.000007375
      2        7           0.000040013    0.000012627    0.000041448
      3        7          -0.000009122    0.000071241    0.000000017
      4        8           0.000011130    0.000032891    0.000066463
      5        8           0.000034714   -0.000040888    0.000063634
      6        8          -0.000030298    0.000073415    0.000006441
      7        8          -0.000047349    0.000059525   -0.000029858
      8       35          -0.000004812   -0.000026635   -0.000030617
      9       35          -0.000023217    0.000014121    0.000016969
     10       35          -0.000026916    0.000010425   -0.000084260
     11        7           0.000012549   -0.000067736   -0.000007863
     12        8           0.000034982   -0.000052702    0.000010693
     13        8           0.000010356   -0.000072816   -0.000045691
 -------------------------------------------------------------------
 Cartesian Forces:  Max     0.000084260 RMS     0.000039711
 FormGI is forming the generalized inverse of G from B-inverse, IUseBI=4.

 GradGradGradGradGradGradGradGradGradGradGradGradGradGradGradGradGradGrad
 Berny optimization.
 Internal  Forces:  Max     0.000017993 RMS     0.000007508
 Search for a local minimum.
 Step number   1 out of a maximum of    2
 All quantities printed in internal units (Hartrees-Bohrs-Radians)
 Second derivative matrix not updated -- analytic derivatives used.
 ITU=  0
     Eigenvalues ---    0.00076   0.00182   0.00580   0.02368   0.02706
     Eigenvalues ---    0.03969   0.04374   0.05225   0.05524   0.06292
     Eigenvalues ---    0.06865   0.07292   0.07822   0.08428   0.08656
     Eigenvalues ---    0.09248   0.10178   0.10746   0.11802   0.13584
     Eigenvalues ---    0.14743   0.15453   0.17082   0.25975   0.30212
     Eigenvalues ---    0.31929   0.36172   0.57365   0.57863   0.60113
     Eigenvalues ---    0.82460   0.84487   0.85405
 Angle between quadratic step and forces=  77.82 degrees.
 Linear search not attempted -- first point.
 Iteration  1 RMS(Cart)=  0.00053741 RMS(Int)=  0.00000019
 Iteration  2 RMS(Cart)=  0.00000020 RMS(Int)=  0.00000001
 Variable       Old X    -DE/DX   Delta X   Delta X   Delta X     New X
                                 (Linear)    (Quad)   (Total)
    R1        4.00364  -0.00001   0.00000  -0.00009  -0.00009   4.00355
    R2        4.06102   0.00000   0.00000   0.00006   0.00006   4.06108
    R3        4.84294   0.00000   0.00000   0.00009   0.00009   4.84304
    R4        4.83857  -0.00002   0.00000  -0.00023  -0.00023   4.83833
    R5        4.92853   0.00001   0.00000   0.00010   0.00010   4.92863
    R6        4.04390   0.00000   0.00000   0.00007   0.00007   4.04397
    R7        2.29254  -0.00001   0.00000  -0.00003  -0.00003   2.29252
    R8        2.29617   0.00000   0.00000   0.00002   0.00002   2.29618
    R9        2.30259   0.00000   0.00000  -0.00002  -0.00002   2.30257
   R10        2.30567   0.00001   0.00000   0.00001   0.00001   2.30568
   R11        2.30570   0.00000   0.00000   0.00000   0.00000   2.30570
   R12        2.30313   0.00001   0.00000   0.00001   0.00001   2.30315
    A1        1.60493  -0.00001   0.00000   0.00011   0.00011   1.60504
    A2        1.51810   0.00001   0.00000   0.00006   0.00006   1.51817
    A3        1.58761  -0.00001   0.00000  -0.00032  -0.00032   1.58730
    A4        1.55254   0.00002   0.00000   0.00004   0.00004   1.55259
    A5        1.57014   0.00001   0.00000   0.00000   0.00000   1.57014
    A6        1.58365  -0.00001   0.00000  -0.00022  -0.00022   1.58343
    A7        1.54628   0.00001   0.00000   0.00011   0.00011   1.54639
    A8        1.62224   0.00001   0.00000   0.00023   0.00023   1.62247
    A9        1.57820  -0.00001   0.00000  -0.00004  -0.00004   1.57816
   A10        1.55512   0.00000   0.00000   0.00002   0.00002   1.55514
   A11        1.55175   0.00001   0.00000   0.00028   0.00028   1.55203
   A12        1.57944  -0.00001   0.00000  -0.00027  -0.00027   1.57916
   A13        2.07444  -0.00001   0.00000   0.00003   0.00003   2.07446
   A14        2.03896   0.00002   0.00000  -0.00001  -0.00001   2.03895
   A15        2.16977  -0.00001   0.00000  -0.00002  -0.00002   2.16975
   A16        2.07276  -0.00001   0.00000   0.00004   0.00004   2.07281
   A17        2.06471   0.00000   0.00000  -0.00007  -0.00007   2.06464
   A18        2.14556   0.00001   0.00000   0.00003   0.00003   2.14558
   A19        2.06079   0.00001   0.00000   0.00005   0.00005   2.06084
   A20        2.07491   0.00000   0.00000  -0.00003  -0.00003   2.07487
   A21        2.14749   0.00000   0.00000  -0.00002  -0.00002   2.14747
   A22        3.15121   0.00000   0.00000   0.00022   0.00022   3.15144
   A23        3.15747   0.00001   0.00000   0.00016   0.00016   3.15763
   A24        3.10572  -0.00001   0.00000  -0.00025  -0.00025   3.10546
   A25        3.14286  -0.00001   0.00000  -0.00029  -0.00029   3.14257
   A26        3.14751   0.00000   0.00000  -0.00005  -0.00005   3.14746
   A27        3.13062   0.00000   0.00000   0.00024   0.00024   3.13085
    D1       -0.54849   0.00001   0.00000   0.00051   0.00051  -0.54797
    D2        2.58719   0.00000   0.00000   0.00047   0.00047   2.58766
    D3       -2.11682   0.00000   0.00000   0.00052   0.00052  -2.11630
    D4        1.01885  -0.00001   0.00000   0.00048   0.00048   1.01933
    D5        1.03575   0.00000   0.00000   0.00028   0.00028   1.03603
    D6       -2.11176  -0.00001   0.00000   0.00024   0.00024  -2.11152
    D7        2.58719   0.00001   0.00000   0.00057   0.00057   2.58775
    D8       -0.56032   0.00000   0.00000   0.00053   0.00053  -0.55980
    D9        0.95452  -0.00001   0.00000  -0.00086  -0.00086   0.95366
   D10       -2.20553  -0.00001   0.00000  -0.00068  -0.00068  -2.20621
   D11        2.47257   0.00000   0.00000  -0.00079  -0.00079   2.47177
   D12       -0.68748   0.00000   0.00000  -0.00062  -0.00062  -0.68810
   D13       -0.63355   0.00000   0.00000  -0.00053  -0.00053  -0.63408
   D14        2.48959   0.00001   0.00000  -0.00036  -0.00036   2.48923
   D15       -2.18834   0.00000   0.00000  -0.00057  -0.00057  -2.18891
   D16        0.93479   0.00001   0.00000  -0.00039  -0.00039   0.93441
   D17        0.20395  -0.00001   0.00000  -0.00181  -0.00181   0.20214
   D18       -2.93028   0.00000   0.00000  -0.00162  -0.00162  -2.93189
   D19       -2.96496   0.00000   0.00000  -0.00169  -0.00169  -2.96664
   D20        0.18400   0.00000   0.00000  -0.00149  -0.00149   0.18251
   D21       -0.75114   0.00001   0.00000  -0.00096  -0.00096  -0.75211
   D22        2.38957   0.00001   0.00000  -0.00081  -0.00081   2.38876
   D23       -2.26910   0.00000   0.00000  -0.00103  -0.00103  -2.27013
   D24        0.87161   0.00000   0.00000  -0.00087  -0.00087   0.87074
   D25        0.83682  -0.00001   0.00000  -0.00128  -0.00128   0.83554
   D26       -2.30565  -0.00001   0.00000  -0.00113  -0.00113  -2.30678
   D27        2.39177  -0.00001   0.00000  -0.00125  -0.00125   2.39052
   D28       -0.75070   0.00000   0.00000  -0.00110  -0.00110  -0.75180
         Item               Value     Threshold  Converged?
 Maximum Force            0.000018     0.000450     YES
 RMS     Force            0.000008     0.000300     YES
 Maximum Displacement     0.001922     0.001800     NO 
 RMS     Displacement     0.000537     0.001200     YES
 Predicted change in Energy=-3.284021D-08
 GradGradGradGradGradGradGradGradGradGradGradGradGradGradGradGradGradGrad

 1\1\GINC-NEQC17\Freq\RB3LYP\Gen\Br3N3O6Pt1(2-)\DIEGO\18-Aug-2021\0\\#N
  Geom=AllCheck Guess=TCheck SCRF=Check GenChk RB3LYP/ChkBas Freq\\Estr
 utura 55\\-2,1\Pt,-0.3260025914,0.1362774888,-0.0518899733\N,-0.106431
 1478,-1.9668232742,-0.1836448106\N,-0.2759839072,0.0808269322,2.095812
 1492\O,0.5293844238,-2.5439480309,0.6733427768\O,-0.6418918648,-2.5160
 416806,-1.1260132866\O,0.6688256223,-0.456478562,2.6465602499\O,-1.189
 1600547,0.6082706908,2.7094703001\Br,-2.8563475528,-0.2670207352,-0.00
 16851769\Br,2.2137680001,0.450075216,-0.1358635718\Br,-0.6002454099,2.
 7262526174,0.0853274414\N,-0.3667597764,0.2265969026,-2.1895322128\O,0
 .4347479287,-0.4540563972,-2.8084016677\O,-1.1839360399,0.9494649424,-
 2.7327378677\\Version=EM64L-G09RevD.01\State=1-A\HF=-8456.0855535\RMSD
 =2.696e-09\RMSF=3.971e-05\ZeroPoint=0.0382034\Thermal=0.0550816\Dipole
 =0.003092,0.1551829,0.0366531\DipoleDeriv=1.2676182,0.2570899,-0.08976
 1,0.2727665,1.0712208,0.0386049,-0.0995917,0.0261921,0.8979077,1.06628
 68,-0.2783387,0.7412132,-0.2617641,3.1757014,0.1448346,0.7993327,0.148
 8661,1.6008975,1.7512342,-0.7240676,0.0205923,-0.7694771,0.7858203,0.0
 324854,-0.0056089,-0.0239112,2.5162768,-0.6129241,0.5304496,-0.3469779
 ,0.4236076,-2.0260011,0.3245411,-0.3782945,0.4540052,-0.7871522,-0.510
 5545,-0.2282554,-0.3647715,-0.0724355,-1.9277761,-0.4861704,-0.3549671
 ,-0.6640483,-0.9104823,-0.9632356,0.3672021,-0.4878181,0.3405367,-0.45
 94479,0.2291973,-0.4477555,0.2902657,-1.8063134,-0.9368149,0.334392,0.
 4614018,0.357804,-0.5210258,-0.258561,0.4353247,-0.2413431,-1.8839432,
 -1.3606887,-0.1536434,0.0320911,-0.2642403,-0.148991,0.0288774,0.03626
 83,0.0160645,-0.1178412,-1.3640085,-0.2243604,0.0270055,-0.1516072,-0.
 1451688,-0.0078272,0.0495124,0.0013307,-0.1190673,-0.1843562,0.1359989
 ,0.0035625,0.1481683,-1.5632469,-0.065242,0.0004417,-0.0578288,-0.2296
 522,1.4906315,-0.8587324,-0.0027614,-0.9048693,1.0867708,-0.0707722,-0
 .0145973,-0.060682,2.4945601,-0.8169465,0.4006378,0.4276585,0.4329934,
 -0.609097,-0.3010228,0.3636846,-0.2788157,-1.843935,-0.8262417,0.44162
 77,-0.4214349,0.448517,-0.7187585,0.3910549,-0.3837494,0.3899047,-1.81
 12553\Polar=257.7814142,-7.793411,232.3183408,4.2888034,3.4598349,211.
 2930418\PG=C01 [X(Br3N3O6Pt1)]\NImag=0\\0.28993560,-0.01309322,0.23686
 963,0.00614710,0.00312530,0.20469127,-0.04711081,0.00144220,0.01135108
 ,0.39244549,0.00134864,-0.06269039,0.00018162,-0.04542874,0.54431913,0
 .01130464,-0.00080127,-0.03467619,0.35547346,0.01513642,0.70527140,-0.
 04576502,-0.00895727,-0.00276692,0.00682017,-0.00513504,0.00834344,0.7
 1040596,-0.00891936,-0.05785441,0.00314353,-0.00180967,0.00032166,-0.0
 0999936,-0.32695206,0.32888460,-0.00063683,0.00889444,-0.06519256,0.00
 470331,-0.02330306,-0.00208406,-0.00393406,0.00578197,0.56995257,0.005
 55857,0.00489162,-0.01057789,-0.19681711,0.13559747,-0.19482025,-0.004
 19075,0.00150168,-0.00439530,0.22286477,0.01417767,-0.00640640,0.01769
 369,0.14049751,-0.24712158,0.17533561,0.00073627,0.00155209,0.00677079
 ,-0.14628361,0.21734372,-0.00870556,0.00342975,0.00137403,-0.19225819,
 0.16790797,-0.31235981,-0.00798511,0.00348899,-0.00492820,0.27870076,-
 0.18246517,0.41146130,0.00838869,-0.00112010,-0.00782282,-0.15177162,-
 0.09183074,-0.17202452,-0.00201848,0.00067948,0.00029917,-0.02954973,-
 0.00769513,-0.07788064,0.17534654,-0.00947291,-0.00758898,-0.02123757,
 -0.09869127,-0.23519140,-0.19134914,0.00095657,-0.00070439,0.00679998,
 0.00509950,0.04907259,0.01373973,0.10156257,0.20699689,-0.00900686,-0.
 00723735,-0.00377218,-0.17443578,-0.18234970,-0.36018206,-0.00243320,0
 .00175417,0.00157541,-0.07428529,-0.00570926,-0.09690653,0.25384039,0.
 19479508,0.46308063,-0.00279541,0.00805634,-0.00069994,-0.00409837,0.0
 0513622,-0.00361062,-0.35165659,0.17381742,-0.18016632,0.00159176,-0.0
 0142151,0.00422541,0.00105708,-0.00114754,0.00116633,0.46552380,0.0088
 4171,0.01065834,0.00152648,0.00481466,-0.00544985,0.00658255,0.1751283
 3,-0.14629726,0.10250971,-0.00318315,-0.00134400,-0.00940020,-0.001702
 20,0.00087965,-0.00231091,-0.25253611,0.16755213,-0.02036704,0.0108327
 5,0.00005856,-0.00134808,0.00680345,0.00141527,-0.18471433,0.10430038,
 -0.24337028,0.00121501,-0.00603810,-0.00049962,-0.00002312,-0.00221360
 ,-0.00041659,0.18574658,-0.10607987,0.20421896,-0.00156214,0.00938024,
 0.00211245,-0.00174306,-0.00057998,-0.00266226,-0.32712936,0.16136703,
 0.18476474,0.00114053,0.00079521,0.00273096,0.00085413,0.00027231,0.00
 086838,-0.10775296,0.07117662,0.01378893,0.43625049,0.00835294,0.00828
 036,-0.00155085,0.00007768,0.00069125,0.00136336,0.16257391,-0.1405254
 0,-0.10823589,-0.00013025,-0.00098814,-0.00088390,-0.00011008,0.000091
 81,-0.00015374,0.07146703,-0.02325903,-0.00766523,-0.23952816,0.157700
 87,0.01957485,-0.01401845,-0.00105911,-0.00132549,0.00740254,0.0001381
 6,0.19053418,-0.11039254,-0.26568569,0.00142931,-0.00319457,0.00057256
 ,-0.00023841,-0.00241482,-0.00024158,-0.00365613,0.00209018,0.05400588
 ,-0.20215691,0.11758157,0.22690509,-0.06981764,-0.00753240,0.00158894,
 -0.00337625,0.00303102,0.00149467,-0.00085723,-0.00009877,-0.00243982,
 0.00022411,0.00014598,0.00013607,-0.00137033,0.00132372,-0.00008183,0.
 00048662,-0.00030743,0.00001285,0.00006802,-0.00023653,-0.00069034,0.0
 8363404,-0.00909699,-0.01223360,0.00016408,0.00439266,-0.00491279,-0.0
 0309387,0.00142414,-0.00006750,-0.00077272,-0.00063497,0.00125647,0.00
 039845,0.00361814,0.00153178,0.00161776,-0.00040456,0.00023418,0.00001
 413,-0.00113257,0.00047340,-0.00145839,0.00822761,0.01502382,0.0008533
 0,0.00040083,-0.00910953,-0.00099382,-0.00074347,-0.00132066,-0.000404
 77,-0.00258224,-0.00489708,0.00046845,0.00000550,0.00071576,0.00231127
 ,-0.00037261,0.00023690,-0.00056219,0.00070007,0.00060421,-0.00408192,
 -0.00007272,-0.00086942,-0.00362984,0.00129698,0.01520679,-0.07136385,
 -0.00640842,0.00098526,-0.00024148,-0.00036555,-0.00004484,0.00020558,
 -0.00020282,0.00158188,-0.00017829,-0.00129041,-0.00009966,0.00014457,
 -0.00051991,0.00018643,-0.00254123,-0.00071144,0.00208965,0.00041473,-
 0.00022920,-0.00006623,-0.00848045,-0.00194206,0.00056392,0.08572714,-
 0.00595915,-0.01235385,0.00014833,-0.00263861,-0.00491353,0.00199786,0
 .00088362,-0.00027721,0.00087013,-0.00253130,0.00061687,-0.00078321,0.
 00056444,0.00109648,-0.00012615,-0.00179152,-0.00094206,0.00166622,-0.
 00028318,0.00022258,-0.00015157,-0.00202411,0.00217873,0.00005010,0.00
 980276,0.01466224,0.00152702,0.00004017,-0.00899291,-0.00091930,0.0000
 7165,-0.00088572,-0.00051216,0.00234555,-0.00461439,0.00053523,0.00089
 378,-0.00023863,0.00032478,-0.00000807,0.00032216,0.00542789,0.0009617
 0,-0.00199578,0.00056780,-0.00065202,0.00052951,0.00040415,0.00004751,
 0.00252107,-0.00112370,-0.00113084,0.01730526,-0.01780770,0.00478023,-
 0.00031523,0.00706797,-0.00121009,-0.00074792,-0.00065141,0.00117834,0
 .00048379,-0.00129809,0.00029960,0.00012949,-0.00068489,0.00196829,0.0
 0129294,0.00051012,-0.00040540,0.00002439,-0.00003452,-0.00122208,0.00
 005447,0.00062812,-0.00392196,0.00021679,-0.00221709,0.00523349,0.0000
 0976,0.01333117,0.00562656,-0.05643861,-0.00170167,-0.00150953,0.02036
 881,0.00097104,-0.00040233,-0.00125380,0.00151965,0.00502468,-0.014203
 19,0.00469476,-0.00291345,-0.01371707,-0.00666133,-0.00016491,0.000523
 71,0.00014354,0.00004726,-0.00086692,0.00159973,-0.00223060,-0.0026364
 8,-0.00004615,0.00299338,-0.00106749,-0.00100708,-0.00554777,0.0710475
 7,-0.00036435,-0.00205013,-0.01329461,-0.00059448,0.00026209,0.0068215
 8,0.00300068,0.00146881,-0.00328196,0.00095483,-0.00196168,-0.00041363
 ,0.00035931,0.00093454,-0.00070846,-0.00076467,0.00005311,0.00054186,-
 0.00197527,0.00378208,0.00028447,0.00014337,0.00024879,0.00020440,-0.0
 0019326,-0.00106580,-0.00025834,-0.00010085,0.00376077,0.01428708,-0.0
 5115418,-0.01235819,-0.00028991,-0.00303524,-0.00254188,-0.00677491,0.
 01924468,0.00337016,-0.00074989,0.00148285,0.00070627,0.00136335,0.000
 20834,0.00059913,0.00668253,-0.00136076,-0.00191786,0.00402615,-0.0018
 1072,-0.00149873,-0.00323984,0.00010341,0.00133820,0.00080928,-0.00070
 422,0.00122394,-0.00107171,-0.00060531,-0.00001339,-0.00269127,0.57360
 406,-0.01328210,-0.04915847,-0.00200213,0.00353439,-0.00233316,0.01085
 758,0.00337241,0.02188352,0.00004318,-0.00114011,-0.00033503,-0.001678
 23,0.00010614,-0.00179932,-0.00316010,-0.00174466,-0.00381201,-0.00252
 879,-0.00141427,-0.00344285,0.00166153,-0.00010662,-0.00088123,0.00263
 580,-0.00057456,-0.00038069,-0.00290233,0.00119694,-0.00098235,-0.0004
 4020,-0.37303699,0.46951466,-0.00031702,-0.00593935,-0.06857365,0.0002
 9392,0.02464005,0.00134728,0.00020625,0.00016888,0.00694828,0.00107911
 ,-0.00735921,0.00101387,-0.00107524,-0.00697602,-0.00689780,0.00295742
 ,-0.00126539,0.00739022,-0.00283721,0.00142895,0.00770196,0.00110719,0
 .00082700,-0.00399520,-0.00202244,-0.00077321,-0.00470139,-0.00043624,
 -0.00127667,-0.00375876,-0.01085629,-0.00266351,0.57533527,0.00224978,
 0.00942282,0.00152091,0.00061119,0.00301761,0.00240945,-0.00237252,-0.
 00205176,-0.00248790,-0.00025613,-0.00110303,-0.00009995,-0.00084704,-
 0.00208046,-0.00197514,0.00260241,-0.00045434,0.00394990,-0.00119926,0
 .00115858,0.00415617,0.00028309,-0.00047178,0.00005413,-0.00106825,-0.
 00199336,-0.00492513,0.00042741,-0.00018732,0.00078492,-0.26122054,0.1
 8165318,0.16455031,0.33824935,0.00964804,0.00578278,-0.00121358,-0.004
 22715,-0.00504729,-0.00611501,-0.00160843,-0.00292858,0.00169469,0.001
 69781,0.00080293,0.00169885,-0.00052193,0.00008837,0.00892397,-0.00120
 139,0.00150042,-0.00300438,0.00136562,-0.00010542,-0.00289652,-0.00018
 971,0.00043582,-0.00054805,-0.00033780,0.00080290,0.00063008,-0.000430
 20,0.00044560,-0.00032165,0.18280784,-0.20250821,-0.13865128,-0.268849
 33,0.25411522,0.01750120,-0.01345024,-0.00218461,-0.00011583,-0.008489
 73,-0.00234082,-0.00258368,0.00323685,0.00787577,0.00010181,0.00320099
 ,0.00009076,0.00128536,0.00526299,0.00250152,-0.00525316,0.00215531,-0
 .01215751,0.00437784,-0.00267342,-0.01017135,0.00010817,0.00011135,0.0
 0060660,-0.00181636,-0.00072265,0.00033724,-0.00002005,-0.00006999,0.0
 0041589,0.17010063,-0.14166875,-0.27085233,-0.18034595,0.15159964,0.23
 193346,0.00124413,0.01149613,-0.00123301,0.00124912,-0.00103892,0.0016
 5967,-0.00203503,-0.00187967,0.00297722,-0.00057249,0.00043519,-0.0002
 5693,0.00024274,0.00013002,-0.00181891,-0.00156647,0.00125660,-0.00440
 089,0.00250410,-0.00067510,-0.00437565,-0.00152551,-0.00139587,0.00439
 539,0.00030283,-0.00048702,-0.00024463,0.00133422,-0.00072258,0.001441
 03,-0.27475237,0.20143626,-0.15264978,-0.07745948,0.08184663,-0.003339
 98,0.35103422,0.01182817,0.00313361,0.00172278,-0.00045411,0.00195915,
 -0.00088577,-0.00202010,-0.00273331,-0.00257286,0.00009063,-0.00024632
 ,-0.00014779,-0.00063714,-0.00075641,0.00061757,0.00193519,-0.00024421
 ,0.00376950,-0.00146612,0.00172748,0.00419133,-0.00000216,-0.00040259,
 -0.00072403,-0.00021398,0.00035503,0.00070990,-0.00191940,-0.00121977,
 -0.00467074,0.20132151,-0.22576484,0.13783977,0.08193919,-0.05338455,0
 .00150765,-0.29040168,0.27757673,-0.01751045,0.01677357,0.00073149,0.0
 0016919,-0.00751984,-0.00114437,0.00324968,-0.00271500,0.00770221,-0.0
 0040578,0.00282764,0.00011815,0.00064447,0.00303952,0.00140857,-0.0048
 1060,0.00247727,-0.00979519,0.00450245,-0.00226816,-0.01211047,0.00184
 640,0.00059892,0.00009617,-0.00004065,0.00002081,0.00067193,-0.0005913
 5,-0.00192661,-0.00083953,-0.15730813,0.14184597,-0.24095775,0.0124082
 9,-0.01179677,0.05394540,0.15784648,-0.14135732,0.20017339\\0.00000203
 ,0.00001347,0.00000738,-0.00004001,-0.00001263,-0.00004145,0.00000912,
 -0.00007124,-0.00000002,-0.00001113,-0.00003289,-0.00006646,-0.0000347
 1,0.00004089,-0.00006363,0.00003030,-0.00007341,-0.00000644,0.00004735
 ,-0.00005953,0.00002986,0.00000481,0.00002664,0.00003062,0.00002322,-0
 .00001412,-0.00001697,0.00002692,-0.00001042,0.00008426,-0.00001255,0.
 00006774,0.00000786,-0.00003498,0.00005270,-0.00001069,-0.00001036,0.0
 0007282,0.00004569\\\@


 THERE IS NO SCIENCE WITHOUT FANCY, NOR ART WITHOUT FACTS.
     -- VLADIMIR NABAKOV
 Job cpu time:       0 days  0 hours 30 minutes 31.6 seconds.
 File lengths (MBytes):  RWF=    195 Int=      0 D2E=      0 Chk=     10 Scr=      1
 Normal termination of Gaussian 09 at Wed Aug 18 09:34:05 2021.
