 Entering Gaussian System, Link 0=g09
 Input=estrutura65_D2O.com
 Output=estrutura65_D2O.log
 Initial command:
 /home/scr/programs/g09/l1.exe "/home/scr/diego/Gau-22331.inp" -scrdir="/home/scr/diego/"
 Entering Link 1 = /home/scr/programs/g09/l1.exe PID=     22333.
  
 Copyright (c) 1988,1990,1992,1993,1995,1998,2003,2009,2013,
            Gaussian, Inc.  All Rights Reserved.
  
 This is part of the Gaussian(R) 09 program.  It is based on
 the Gaussian(R) 03 system (copyright 2003, Gaussian, Inc.),
 the Gaussian(R) 98 system (copyright 1998, Gaussian, Inc.),
 the Gaussian(R) 94 system (copyright 1995, Gaussian, Inc.),
 the Gaussian 92(TM) system (copyright 1992, Gaussian, Inc.),
 the Gaussian 90(TM) system (copyright 1990, Gaussian, Inc.),
 the Gaussian 88(TM) system (copyright 1988, Gaussian, Inc.),
 the Gaussian 86(TM) system (copyright 1986, Carnegie Mellon
 University), and the Gaussian 82(TM) system (copyright 1983,
 Carnegie Mellon University). Gaussian is a federally registered
 trademark of Gaussian, Inc.
  
 This software contains proprietary and confidential information,
 including trade secrets, belonging to Gaussian, Inc.
  
 This software is provided under written license and may be
 used, copied, transmitted, or stored only in accord with that
 written license.
  
 The following legend is applicable only to US Government
 contracts under FAR:
  
                    RESTRICTED RIGHTS LEGEND
  
 Use, reproduction and disclosure by the US Government is
 subject to restrictions as set forth in subparagraphs (a)
 and (c) of the Commercial Computer Software - Restricted
 Rights clause in FAR 52.227-19.
  
 Gaussian, Inc.
 340 Quinnipiac St., Bldg. 40, Wallingford CT 06492
  
  
 ---------------------------------------------------------------
 Warning -- This program may not be used in any manner that
 competes with the business of Gaussian, Inc. or will provide
 assistance to any competitor of Gaussian, Inc.  The licensee
 of this program is prohibited from giving any competitor of
 Gaussian, Inc. access to this program.  By using this program,
 the user acknowledges that Gaussian, Inc. is engaged in the
 business of creating and licensing software in the field of
 computational chemistry and represents and warrants to the
 licensee that it is not a competitor of Gaussian, Inc. and that
 it will not use this program in any manner prohibited above.
 ---------------------------------------------------------------
  

 Cite this work as:
 Gaussian 09, Revision D.01,
 M. J. Frisch, G. W. Trucks, H. B. Schlegel, G. E. Scuseria, 
 M. A. Robb, J. R. Cheeseman, G. Scalmani, V. Barone, B. Mennucci, 
 G. A. Petersson, H. Nakatsuji, M. Caricato, X. Li, H. P. Hratchian, 
 A. F. Izmaylov, J. Bloino, G. Zheng, J. L. Sonnenberg, M. Hada, 
 M. Ehara, K. Toyota, R. Fukuda, J. Hasegawa, M. Ishida, T. Nakajima, 
 Y. Honda, O. Kitao, H. Nakai, T. Vreven, J. A. Montgomery, Jr., 
 J. E. Peralta, F. Ogliaro, M. Bearpark, J. J. Heyd, E. Brothers, 
 K. N. Kudin, V. N. Staroverov, T. Keith, R. Kobayashi, J. Normand, 
 K. Raghavachari, A. Rendell, J. C. Burant, S. S. Iyengar, J. Tomasi, 
 M. Cossi, N. Rega, J. M. Millam, M. Klene, J. E. Knox, J. B. Cross, 
 V. Bakken, C. Adamo, J. Jaramillo, R. Gomperts, R. E. Stratmann, 
 O. Yazyev, A. J. Austin, R. Cammi, C. Pomelli, J. W. Ochterski, 
 R. L. Martin, K. Morokuma, V. G. Zakrzewski, G. A. Voth, 
 P. Salvador, J. J. Dannenberg, S. Dapprich, A. D. Daniels, 
 O. Farkas, J. B. Foresman, J. V. Ortiz, J. Cioslowski, 
 and D. J. Fox, Gaussian, Inc., Wallingford CT, 2013.
 
 ******************************************
 Gaussian 09:  EM64L-G09RevD.01 24-Apr-2013
                18-Aug-2021 
 ******************************************
 %mem=15gb
 %nproc=8
 Will use up to    8 processors via shared memory.
 ------------------------------------------------------------
 #b3lyp/gen pseudo=read opt freq=noraman scrf=(solvent=water)
 ------------------------------------------------------------
 1/14=-1,18=20,19=15,26=3,38=1/1,3;
 2/9=110,12=2,17=6,18=5,40=1/2;
 3/5=7,11=2,16=1,17=8,25=1,30=1,70=2201,71=1,72=1,74=-5/1,2,3;
 4//1;
 5/5=2,38=5,53=1/2;
 6/7=2,8=2,9=2,10=2,28=1/1;
 7//1,2,3,16;
 1/14=-1,18=20,19=15,26=3/3(2);
 2/9=110/2;
 99//99;
 2/9=110/2;
 3/5=7,6=1,11=2,16=1,17=8,25=1,30=1,70=2205,71=1,72=1,74=-5,82=7/1,2,3;
 4/5=5,16=3,69=1/1;
 5/5=2,38=5,53=1/2;
 7//1,2,3,16;
 1/14=-1,18=20,19=15,26=3/3(-5);
 2/9=110/2;
 6/7=2,8=2,9=2,10=2,19=2,28=1/1;
 99/9=1/99;
 ------------
 Estrutura 65
 ------------
 Symbolic Z-matrix:
 Charge = -2 Multiplicity = 1
 Pt                   -0.31955   0.33835   0. 
 N                     1.67045   0.33835   0. 
 O                     2.12378   1.35457  -0.7819 
 O                     2.12378   0.50738   1.27103 
 N                    -0.31955   2.32835   0. 
 N                    -2.30955   0.33835   0. 
 O                    -2.76288  -0.04279   1.22426 
 O                    -2.76288   1.58916  -0.28206 
 O                     0.38494   2.78168   1.07135 
 O                     0.25602   2.78168  -1.14578 
 N                    -0.31955   0.33835  -1.99 
 O                     0.52851  -0.62336  -2.44333 
 O                    -1.57644   0.08476  -2.44333 
 Br                   -0.31955  -2.09165   0. 
 Br                   -0.31955   0.33835   2.43 
 

 GradGradGradGradGradGradGradGradGradGradGradGradGradGradGradGradGradGrad
 Berny optimization.
 Initialization pass.
                           ----------------------------
                           !    Initial Parameters    !
                           ! (Angstroms and Degrees)  !
 --------------------------                            --------------------------
 ! Name  Definition              Value          Derivative Info.                !
 --------------------------------------------------------------------------------
 ! R1    R(1,2)                  1.99           estimate D2E/DX2                !
 ! R2    R(1,5)                  1.99           estimate D2E/DX2                !
 ! R3    R(1,6)                  1.99           estimate D2E/DX2                !
 ! R4    R(1,11)                 1.99           estimate D2E/DX2                !
 ! R5    R(1,14)                 2.43           estimate D2E/DX2                !
 ! R6    R(1,15)                 2.43           estimate D2E/DX2                !
 ! R7    R(2,3)                  1.36           estimate D2E/DX2                !
 ! R8    R(2,4)                  1.36           estimate D2E/DX2                !
 ! R9    R(5,9)                  1.36           estimate D2E/DX2                !
 ! R10   R(5,10)                 1.36           estimate D2E/DX2                !
 ! R11   R(6,7)                  1.36           estimate D2E/DX2                !
 ! R12   R(6,8)                  1.36           estimate D2E/DX2                !
 ! R13   R(11,12)                1.36           estimate D2E/DX2                !
 ! R14   R(11,13)                1.36           estimate D2E/DX2                !
 ! A1    A(2,1,5)               90.0            estimate D2E/DX2                !
 ! A2    A(2,1,11)              90.0            estimate D2E/DX2                !
 ! A3    A(2,1,14)              90.0            estimate D2E/DX2                !
 ! A4    A(2,1,15)              90.0            estimate D2E/DX2                !
 ! A5    A(5,1,6)               90.0            estimate D2E/DX2                !
 ! A6    A(5,1,11)              90.0            estimate D2E/DX2                !
 ! A7    A(5,1,15)              90.0            estimate D2E/DX2                !
 ! A8    A(6,1,11)              90.0            estimate D2E/DX2                !
 ! A9    A(6,1,14)              90.0            estimate D2E/DX2                !
 ! A10   A(6,1,15)              90.0            estimate D2E/DX2                !
 ! A11   A(11,1,14)             90.0            estimate D2E/DX2                !
 ! A12   A(14,1,15)             90.0            estimate D2E/DX2                !
 ! A13   A(1,2,3)              109.4712         estimate D2E/DX2                !
 ! A14   A(1,2,4)              109.4712         estimate D2E/DX2                !
 ! A15   A(3,2,4)              109.4713         estimate D2E/DX2                !
 ! A16   A(1,5,9)              109.4712         estimate D2E/DX2                !
 ! A17   A(1,5,10)             109.4712         estimate D2E/DX2                !
 ! A18   A(9,5,10)             109.4713         estimate D2E/DX2                !
 ! A19   A(1,6,7)              109.4712         estimate D2E/DX2                !
 ! A20   A(1,6,8)              109.4712         estimate D2E/DX2                !
 ! A21   A(7,6,8)              109.4713         estimate D2E/DX2                !
 ! A22   A(1,11,12)            109.4712         estimate D2E/DX2                !
 ! A23   A(1,11,13)            109.4712         estimate D2E/DX2                !
 ! A24   A(12,11,13)           109.4713         estimate D2E/DX2                !
 ! A25   L(2,1,6,5,-1)         180.0            estimate D2E/DX2                !
 ! A26   L(5,1,14,2,-1)        180.0            estimate D2E/DX2                !
 ! A27   L(11,1,15,2,-1)       180.0            estimate D2E/DX2                !
 ! A28   L(2,1,6,5,-2)         180.0            estimate D2E/DX2                !
 ! A29   L(5,1,14,2,-2)        180.0            estimate D2E/DX2                !
 ! A30   L(11,1,15,2,-2)       180.0            estimate D2E/DX2                !
 ! D1    D(5,1,2,3)            -37.5752         estimate D2E/DX2                !
 ! D2    D(5,1,2,4)             82.4248         estimate D2E/DX2                !
 ! D3    D(11,1,2,3)            52.4248         estimate D2E/DX2                !
 ! D4    D(11,1,2,4)           172.4248         estimate D2E/DX2                !
 ! D5    D(14,1,2,3)           142.4248         estimate D2E/DX2                !
 ! D6    D(14,1,2,4)           -97.5752         estimate D2E/DX2                !
 ! D7    D(15,1,2,3)          -127.5752         estimate D2E/DX2                !
 ! D8    D(15,1,2,4)            -7.5752         estimate D2E/DX2                !
 ! D9    D(3,2,6,7)           -144.8676         estimate D2E/DX2                !
 ! D10   D(3,2,6,8)            -24.8676         estimate D2E/DX2                !
 ! D11   D(4,2,6,7)            -24.8676         estimate D2E/DX2                !
 ! D12   D(4,2,6,8)             95.1324         estimate D2E/DX2                !
 ! D13   D(2,1,5,9)            -56.6723         estimate D2E/DX2                !
 ! D14   D(2,1,5,10)            63.3277         estimate D2E/DX2                !
 ! D15   D(6,1,5,9)            123.3277         estimate D2E/DX2                !
 ! D16   D(6,1,5,10)          -116.6723         estimate D2E/DX2                !
 ! D17   D(11,1,5,9)          -146.6723         estimate D2E/DX2                !
 ! D18   D(11,1,5,10)          -26.6723         estimate D2E/DX2                !
 ! D19   D(15,1,5,9)            33.3277         estimate D2E/DX2                !
 ! D20   D(15,1,5,10)          153.3277         estimate D2E/DX2                !
 ! D21   D(5,1,6,7)           -107.2924         estimate D2E/DX2                !
 ! D22   D(5,1,6,8)             12.7076         estimate D2E/DX2                !
 ! D23   D(11,1,6,7)           162.7076         estimate D2E/DX2                !
 ! D24   D(11,1,6,8)           -77.2924         estimate D2E/DX2                !
 ! D25   D(14,1,6,7)            72.7076         estimate D2E/DX2                !
 ! D26   D(14,1,6,8)          -167.2924         estimate D2E/DX2                !
 ! D27   D(15,1,6,7)           -17.2924         estimate D2E/DX2                !
 ! D28   D(15,1,6,8)           102.7076         estimate D2E/DX2                !
 ! D29   D(2,1,11,12)           48.5934         estimate D2E/DX2                !
 ! D30   D(2,1,11,13)          168.5934         estimate D2E/DX2                !
 ! D31   D(5,1,11,12)          138.5934         estimate D2E/DX2                !
 ! D32   D(5,1,11,13)         -101.4066         estimate D2E/DX2                !
 ! D33   D(6,1,11,12)         -131.4066         estimate D2E/DX2                !
 ! D34   D(6,1,11,13)          -11.4066         estimate D2E/DX2                !
 ! D35   D(14,1,11,12)         -41.4066         estimate D2E/DX2                !
 ! D36   D(14,1,11,13)          78.5934         estimate D2E/DX2                !
 --------------------------------------------------------------------------------
 Trust Radius=3.00D-01 FncErr=1.00D-07 GrdErr=1.00D-06
 Number of steps in this run=     90 maximum allowed number of steps=    100.
 GradGradGradGradGradGradGradGradGradGradGradGradGradGradGradGradGradGrad

                          Input orientation:                          
 ---------------------------------------------------------------------
 Center     Atomic      Atomic             Coordinates (Angstroms)
 Number     Number       Type             X           Y           Z
 ---------------------------------------------------------------------
      1         78           0       -0.319549    0.338346    0.000000
      2          7           0        1.670451    0.338346    0.000000
      3          8           0        2.123784    1.354574   -0.781901
      4          8           0        2.123784    0.507377    1.271030
      5          7           0       -0.319549    2.328346    0.000000
      6          7           0       -2.309549    0.338346    0.000000
      7          8           0       -2.762882   -0.042792    1.224264
      8          8           0       -2.762882    1.589159   -0.282057
      9          8           0        0.384937    2.781679    1.071349
     10          8           0        0.256023    2.781679   -1.145778
     11          7           0       -0.319549    0.338346   -1.990000
     12          8           0        0.528510   -0.623364   -2.443333
     13          8           0       -1.576443    0.084760   -2.443333
     14         35           0       -0.319549   -2.091654    0.000000
     15         35           0       -0.319549    0.338346    2.430000
 ---------------------------------------------------------------------
                    Distance matrix (angstroms):
                    1          2          3          4          5
     1  Pt   0.000000
     2  N    1.990000   0.000000
     3  O    2.759341   1.360000   0.000000
     4  O    2.759341   1.360000   2.220871   0.000000
     5  N    1.990000   2.814285   2.743989   3.301715   0.000000
     6  N    1.990000   3.980000   4.615033   4.615033   2.814285
     7  O    2.759341   4.615033   5.464141   4.917761   3.618148
     8  O    2.759341   4.615033   4.917761   5.240404   2.568235
     9  O    2.759341   2.961454   2.914576   2.869827   1.360000
    10  O    2.759341   3.046849   2.378564   3.808141   1.360000
    11  N    1.990000   2.814285   2.908969   4.078329   2.814285
    12  O    2.759341   2.863353   3.036033   4.197615   3.924496
    13  O    2.759341   4.071425   4.250231   5.259922   3.547300
    14  Br   2.430000   3.140860   4.296247   3.786867   4.420000
    15  Br   2.430000   3.140860   4.161599   2.709550   3.140860
                    6          7          8          9         10
     6  N    0.000000
     7  O    1.360000   0.000000
     8  O    1.360000   2.220871   0.000000
     9  O    3.791823   4.231995   3.628027   0.000000
    10  O    3.723552   4.765346   3.358854   2.220871   0.000000
    11  N    2.814285   4.055445   3.232874   3.979703   2.648371
    12  O    3.866438   4.962015   4.516595   4.895704   3.654068
    13  O    2.563518   3.856835   2.888246   4.844933   3.509267
    14  Br   3.140860   3.415631   4.426942   5.039193   5.039193
    15  Br   3.140860   2.751171   3.858713   2.883073   4.368906
                   11         12         13         14         15
    11  N    0.000000
    12  O    1.360000   0.000000
    13  O    1.360000   2.220871   0.000000
    14  Br   3.140860   2.974047   3.505202   0.000000
    15  Br   4.420000   5.039193   5.039193   3.436539   0.000000
 Stoichiometry    Br2N4O8Pt(2-)
 Framework group  C1[X(Br2N4O8Pt)]
 Deg. of freedom    39
 Full point group                 C1      NOp   1
 Largest Abelian subgroup         C1      NOp   1
 Largest concise Abelian subgroup C1      NOp   1
                         Standard orientation:                         
 ---------------------------------------------------------------------
 Center     Atomic      Atomic             Coordinates (Angstroms)
 Number     Number       Type             X           Y           Z
 ---------------------------------------------------------------------
      1         78           0       -0.080710    0.180999    0.067930
      2          7           0        0.197986    0.699423   -1.833035
      3          8           0        0.260788    2.054591   -1.928816
      4          8           0        1.361310    0.158651   -2.284525
      5          7           0        1.119992    1.658560    0.646917
      6          7           0       -0.359406   -0.337425    1.968894
      7          8           0        0.308271   -1.494034    2.225920
      8          8           0        0.110371    0.647258    2.780872
      9          8           0        2.333264    1.517536    0.048851
     10          8           0        0.574612    2.852183    0.289951
     11          7           0       -1.642998    1.409066    0.173800
     12          8           0       -2.460391    1.195695   -0.892006
     13          8           0       -2.327927    1.173101    1.324796
     14         35           0       -1.546894   -1.623260   -0.639076
     15         35           0        1.827008   -1.318601   -0.061349
 ---------------------------------------------------------------------
 Rotational constants (GHZ):      0.3958431      0.3748492      0.3222988
 General basis read from cards:  (5D, 7F)
 ======================================================================================================
                                       Pseudopotential Parameters
 ======================================================================================================
  Center     Atomic      Valence      Angular      Power
  Number     Number     Electrons     Momentum     of R      Exponent        Coefficient   SO-Coeffient
 ======================================================================================================
    1         78           18
                                      G and up 
                                                     1      728.9394056       -0.16192680    0.00000000
                                                     2      320.6567800    -1320.28738520    0.00000000
                                                     2       52.8680174     -298.31781350    0.00000000
                                                     2       12.0280128      -87.58370650    0.00000000
                                                     2        3.5238913       -8.14932740    0.00000000
                                      S - G
                                                     0      409.4437358        2.73342180    0.00000000
                                                     1      274.5419231       59.70243290    0.00000000
                                                     2      127.5658570      891.45895500    0.00000000
                                                     2       32.9036631      368.44676560    0.00000000
                                                     2        5.0593880      238.02630900    0.00000000
                                                     2        4.1506556     -107.05564540    0.00000000
                                      P - G
                                                     0      466.1728892        1.88785680    0.00000000
                                                     1      120.7888259       76.01386290    0.00000000
                                                     2       36.4118791      343.55111160    0.00000000
                                                     2        5.6985408      119.49117860    0.00000000
                                      D - G
                                                     0      249.5650763        2.93436780    0.00000000
                                                     1      126.6678585       59.33065710    0.00000000
                                                     2       63.1430586      452.44451940    0.00000000
                                                     2       17.9059470      210.47694790    0.00000000
                                                     2        4.2239373       58.62541120    0.00000000
                                      F - G
                                                     0      121.8158799        3.95342530    0.00000000
                                                     1       60.8757030       53.85551820    0.00000000
                                                     2       31.4767147      247.43051330    0.00000000
                                                     2        9.8811751      127.81879760    0.00000000
                                                     2        2.7319874       15.37720460    0.00000000
    2          7
                                   No pseudopotential on this center.
    3          8
                                   No pseudopotential on this center.
    4          8
                                   No pseudopotential on this center.
    5          7
                                   No pseudopotential on this center.
    6          7
                                   No pseudopotential on this center.
    7          8
                                   No pseudopotential on this center.
    8          8
                                   No pseudopotential on this center.
    9          8
                                   No pseudopotential on this center.
   10          8
                                   No pseudopotential on this center.
   11          7
                                   No pseudopotential on this center.
   12          8
                                   No pseudopotential on this center.
   13          8
                                   No pseudopotential on this center.
   14         35
                                   No pseudopotential on this center.
   15         35
                                   No pseudopotential on this center.
 ======================================================================================================
 There are   274 symmetry adapted cartesian basis functions of A   symmetry.
 There are   254 symmetry adapted basis functions of A   symmetry.
   254 basis functions,   503 primitive gaussians,   274 cartesian basis functions
    91 alpha electrons       91 beta electrons
       nuclear repulsion energy      2455.0417623699 Hartrees.
 NAtoms=   15 NActive=   15 NUniq=   15 SFac= 1.00D+00 NAtFMM=   60 NAOKFM=F Big=F
 Integral buffers will be    131072 words long.
 Raffenetti 2 integral format.
 Two-electron integral symmetry is turned on.
 ------------------------------------------------------------------------------
 Polarizable Continuum Model (PCM)
 =================================
 Model                : PCM (using non-symmetric T matrix).
 Atomic radii         : UFF (Universal Force Field).
 Polarization charges : Total charges.
 Charge compensation  : None.
 Solution method      : On-the-fly selection.
 Cavity type          : Scaled VdW (van der Waals Surface) (Alpha=1.100).
 Cavity algorithm     : GePol (No added spheres)
                        Default sphere list used, NSphG=   15.
                        Lebedev-Laikov grids with approx.  5.0 points / Ang**2.
                        Smoothing algorithm: Karplus/York (Gamma=1.0000).
                        Polarization charges: spherical gaussians, with
                                              point-specific exponents (IZeta= 3).
                        Self-potential: point-specific (ISelfS= 7).
                        Self-field    : sphere-specific E.n sum rule (ISelfD= 2).
 1st derivatives      : Analytical E(r).r(x)/FMM algorithm (CHGder, D1EAlg=3).
                        Cavity 1st derivative terms included.
 Solvent              : Water, Eps=  78.355300 Eps(inf)=   1.777849
 ------------------------------------------------------------------------------
 Spheres list:
 ISph  on   Nord     Re0    Alpha      Xe            Ye            Ze
    1  Pt      1    1.3770  1.100     -0.080710      0.180999      0.067930
    2   N      2    1.8300  1.100      0.197986      0.699423     -1.833035
    3   O      3    1.7500  1.100      0.260788      2.054591     -1.928816
    4   O      4    1.7500  1.100      1.361310      0.158651     -2.284525
    5   N      5    1.8300  1.100      1.119992      1.658560      0.646917
    6   N      6    1.8300  1.100     -0.359406     -0.337425      1.968894
    7   O      7    1.7500  1.100      0.308271     -1.494034      2.225920
    8   O      8    1.7500  1.100      0.110371      0.647258      2.780872
    9   O      9    1.7500  1.100      2.333264      1.517536      0.048851
   10   O     10    1.7500  1.100      0.574612      2.852183      0.289951
   11   N     11    1.8300  1.100     -1.642998      1.409066      0.173800
   12   O     12    1.7500  1.100     -2.460391      1.195695     -0.892006
   13   O     13    1.7500  1.100     -2.327927      1.173101      1.324796
   14  Br     14    2.0945  1.100     -1.546894     -1.623260     -0.639076
   15  Br     15    2.0945  1.100      1.827008     -1.318601     -0.061349
 ------------------------------------------------------------------------------
 One-electron integrals computed using PRISM.
   1 Symmetry operations used in ECPInt.
 ECPInt:  NShTT=    5460 NPrTT=   24557 LenC2=    5103 LenP2D=   15965.
 LDataN:  DoStor=T MaxTD1= 6 Len=  172
 NBasis=   254 RedAO= T EigKep=  2.80D-03  NBF=   254
 NBsUse=   254 1.00D-06 EigRej= -1.00D+00 NBFU=   254
 Defaulting to unpruned grid for atomic number  78.
 ExpMin= 2.90D-02 ExpMax= 1.13D+05 ExpMxC= 1.70D+04 IAcc=3 IRadAn=         5 AccDes= 0.00D+00
 Harris functional with IExCor=  402 and IRadAn=       5 diagonalized for initial guess.
 HarFok:  IExCor=  402 AccDes= 0.00D+00 IRadAn=         5 IDoV= 1 UseB2=F ITyADJ=14
 ICtDFT=  3500011 ScaDFX=  1.000000  1.000000  1.000000  1.000000
 Defaulting to unpruned grid for atomic number  78.
 Defaulting to unpruned grid for atomic number  78.
 Defaulting to unpruned grid for atomic number  78.
 Defaulting to unpruned grid for atomic number  78.
 Defaulting to unpruned grid for atomic number  78.
 Defaulting to unpruned grid for atomic number  78.
 Defaulting to unpruned grid for atomic number  78.
 Defaulting to unpruned grid for atomic number  78.
 FoFCou: FMM=F IPFlag=           0 FMFlag=      100000 FMFlg1=           0
         NFxFlg=           0 DoJE=T BraDBF=F KetDBF=T FulRan=T
         wScrn=  0.000000 ICntrl=     500 IOpCl=  0 I1Cent=   200000004 NGrid=           0
         NMat0=    1 NMatS0=      1 NMatT0=    0 NMatD0=    1 NMtDS0=    0 NMtDT0=    0
 Petite list used in FoFCou.
 Keep R1 ints in memory in canonical form, NReq=535056607.
 Requested convergence on RMS density matrix=1.00D-08 within 128 cycles.
 Requested convergence on MAX density matrix=1.00D-06.
 Requested convergence on             energy=1.00D-06.
 No special actions if energy rises.
 Defaulting to unpruned grid for atomic number  78.
 Defaulting to unpruned grid for atomic number  78.
 Defaulting to unpruned grid for atomic number  78.
 Defaulting to unpruned grid for atomic number  78.
 Defaulting to unpruned grid for atomic number  78.
 Defaulting to unpruned grid for atomic number  78.
 Defaulting to unpruned grid for atomic number  78.
 Defaulting to unpruned grid for atomic number  78.
 Inv3:  Mode=1 IEnd=     9441228.
 Iteration    1 A*A^-1 deviation from unit magnitude is 6.77D-15 for    379.
 Iteration    1 A*A^-1 deviation from orthogonality  is 3.54D-15 for   1247    558.
 Iteration    1 A^-1*A deviation from unit magnitude is 6.44D-15 for    155.
 Iteration    1 A^-1*A deviation from orthogonality  is 7.30D-13 for   1139   1136.
 EnCoef did   100 forward-backward iterations
 EnCoef did   100 forward-backward iterations
 EnCoef did   100 forward-backward iterations
 EnCoef did   100 forward-backward iterations
 EnCoef did   100 forward-backward iterations
 EnCoef did     3 forward-backward iterations
 EnCoef did     4 forward-backward iterations
 Error on total polarization charges =  0.00974
 SCF Done:  E(RB3LYP) =  -6086.77293172     A.U. after   29 cycles
            NFock= 29  Conv=0.24D-08     -V/T= 2.0156

 **********************************************************************

            Population analysis using the SCF density.

 **********************************************************************

 Orbital symmetries:
       Occupied  (A) (A) (A) (A) (A) (A) (A) (A) (A) (A) (A) (A)
                 (A) (A) (A) (A) (A) (A) (A) (A) (A) (A) (A) (A)
                 (A) (A) (A) (A) (A) (A) (A) (A) (A) (A) (A) (A)
                 (A) (A) (A) (A) (A) (A) (A) (A) (A) (A) (A) (A)
                 (A) (A) (A) (A) (A) (A) (A) (A) (A) (A) (A) (A)
                 (A) (A) (A) (A) (A) (A) (A) (A) (A) (A) (A) (A)
                 (A) (A) (A) (A) (A) (A) (A) (A) (A) (A) (A) (A)
                 (A) (A) (A) (A) (A) (A) (A)
       Virtual   (A) (A) (A) (A) (A) (A) (A) (A) (A) (A) (A) (A)
                 (A) (A) (A) (A) (A) (A) (A) (A) (A) (A) (A) (A)
                 (A) (A) (A) (A) (A) (A) (A) (A) (A) (A) (A) (A)
                 (A) (A) (A) (A) (A) (A) (A) (A) (A) (A) (A) (A)
                 (A) (A) (A) (A) (A) (A) (A) (A) (A) (A) (A) (A)
                 (A) (A) (A) (A) (A) (A) (A) (A) (A) (A) (A) (A)
                 (A) (A) (A) (A) (A) (A) (A) (A) (A) (A) (A) (A)
                 (A) (A) (A) (A) (A) (A) (A) (A) (A) (A) (A) (A)
                 (A) (A) (A) (A) (A) (A) (A) (A) (A) (A) (A) (A)
                 (A) (A) (A) (A) (A) (A) (A) (A) (A) (A) (A) (A)
                 (A) (A) (A) (A) (A) (A) (A) (A) (A) (A) (A) (A)
                 (A) (A) (A) (A) (A) (A) (A) (A) (A) (A) (A) (A)
                 (A) (A) (A) (A) (A) (A) (A) (A) (A) (A) (A) (A)
                 (A) (A) (A) (A) (A) (A) (A)
 The electronic state is 1-A.
 Alpha  occ. eigenvalues -- -482.75993-482.75064 -62.44146 -62.43221 -56.27347
 Alpha  occ. eigenvalues --  -56.27040 -56.27036 -56.26430 -56.26118 -56.26096
 Alpha  occ. eigenvalues --  -19.15573 -19.15289 -19.15126 -19.15068 -19.15055
 Alpha  occ. eigenvalues --  -19.14660 -19.14586 -19.14583 -14.49963 -14.49922
 Alpha  occ. eigenvalues --  -14.49875 -14.49831  -8.65913  -8.65004  -6.49140
 Alpha  occ. eigenvalues --   -6.48262  -6.48032  -6.48018  -6.47136  -6.47059
 Alpha  occ. eigenvalues --   -4.05174  -2.60586  -2.60276  -2.60266  -2.59705
 Alpha  occ. eigenvalues --   -2.59407  -2.59395  -2.59394  -2.59347  -2.58459
 Alpha  occ. eigenvalues --   -2.58458  -2.26878  -2.26476  -2.26306  -1.10646
 Alpha  occ. eigenvalues --   -1.09682  -1.09392  -1.09116  -0.94241  -0.93941
 Alpha  occ. eigenvalues --   -0.93373  -0.93114  -0.74510  -0.73167  -0.68017
 Alpha  occ. eigenvalues --   -0.65930  -0.65620  -0.63893  -0.52137  -0.50735
 Alpha  occ. eigenvalues --   -0.50610  -0.49558  -0.48455  -0.48028  -0.47429
 Alpha  occ. eigenvalues --   -0.46409  -0.45890  -0.45379  -0.45117  -0.43313
 Alpha  occ. eigenvalues --   -0.38595  -0.37771  -0.37131  -0.36034  -0.35446
 Alpha  occ. eigenvalues --   -0.30486  -0.29692  -0.29017  -0.28746  -0.27606
 Alpha  occ. eigenvalues --   -0.27284  -0.27080  -0.26965  -0.26289  -0.26203
 Alpha  occ. eigenvalues --   -0.25712  -0.25304  -0.24985  -0.24612  -0.23366
 Alpha  occ. eigenvalues --   -0.21926
 Alpha virt. eigenvalues --   -0.15485  -0.13863  -0.12628  -0.09708  -0.04438
 Alpha virt. eigenvalues --   -0.01376   0.05689   0.06304   0.06819   0.15875
 Alpha virt. eigenvalues --    0.17229   0.17608   0.18700   0.19257   0.19916
 Alpha virt. eigenvalues --    0.20135   0.20741   0.20863   0.28409   0.29635
 Alpha virt. eigenvalues --    0.30275   0.37603   0.40295   0.43407   0.44573
 Alpha virt. eigenvalues --    0.45179   0.46642   0.47408   0.54567   0.55199
 Alpha virt. eigenvalues --    0.55424   0.56489   0.58526   0.61037   0.61802
 Alpha virt. eigenvalues --    0.62523   0.64070   0.68777   0.69558   0.70067
 Alpha virt. eigenvalues --    0.72807   0.74129   0.76794   0.81542   0.82963
 Alpha virt. eigenvalues --    0.83793   0.83977   0.84523   0.85724   0.87374
 Alpha virt. eigenvalues --    0.88853   0.89436   0.91115   0.92201   0.92797
 Alpha virt. eigenvalues --    0.93601   0.95887   0.96469   0.97701   0.98475
 Alpha virt. eigenvalues --    1.00123   1.00840   1.02440   1.05154   1.06025
 Alpha virt. eigenvalues --    1.06485   1.07265   1.07961   1.09676   1.11722
 Alpha virt. eigenvalues --    1.13300   1.14054   1.16287   1.16882   1.17796
 Alpha virt. eigenvalues --    1.19154   1.21655   1.21906   1.23008   1.25259
 Alpha virt. eigenvalues --    1.27746   1.28978   1.29282   1.32440   1.35435
 Alpha virt. eigenvalues --    1.36544   1.42785   1.46550   1.49075   1.53387
 Alpha virt. eigenvalues --    1.55433   1.56152   1.86306   1.87346   1.91454
 Alpha virt. eigenvalues --    1.91573   1.97364   1.98680   1.99886   2.04011
 Alpha virt. eigenvalues --    2.07633   2.10640   2.16556   2.22829   2.29291
 Alpha virt. eigenvalues --    2.29780   2.30910   2.33552   2.34170   2.34409
 Alpha virt. eigenvalues --    2.35028   2.36061   2.64087   2.64183   2.65087
 Alpha virt. eigenvalues --    2.65710   2.65890   2.66190   2.66525   2.66723
 Alpha virt. eigenvalues --    2.66736   2.67575   2.67872   2.68799   2.69249
 Alpha virt. eigenvalues --    2.70059   2.71318   2.73440   2.75146   2.75942
 Alpha virt. eigenvalues --    2.77023   2.77764   2.96061   2.97811   2.98319
 Alpha virt. eigenvalues --    3.00437   3.01022   3.01425   3.01596   3.02077
 Alpha virt. eigenvalues --    3.20869   3.22626   3.23402   3.24206   3.43852
 Alpha virt. eigenvalues --    3.46148   3.46617   3.48419   3.49495   3.50626
 Alpha virt. eigenvalues --    3.51341   3.53836   3.58547   3.59062   3.65025
 Alpha virt. eigenvalues --    3.67589   3.69780   3.72935   3.73938   3.74395
 Alpha virt. eigenvalues --    3.76425   3.85085   9.35264
          Condensed to atoms (all electrons):
               1          2          3          4          5          6
     1  Pt  17.483272   0.038662  -0.008112  -0.015895  -0.012305   0.046657
     2  N    0.038662   6.655087   0.178010   0.179080  -0.022350  -0.005085
     3  O   -0.008112   0.178010   8.191461  -0.093206  -0.013513   0.000123
     4  O   -0.015895   0.179080  -0.093206   8.209067  -0.000882   0.000099
     5  N   -0.012305  -0.022350  -0.013513  -0.000882   6.764625  -0.018039
     6  N    0.046657  -0.005085   0.000123   0.000099  -0.018039   6.645839
     7  O   -0.017824   0.000109   0.000000  -0.000001  -0.000518   0.187409
     8  O    0.009325   0.000131  -0.000003   0.000000  -0.018581   0.165385
     9  O   -0.002225  -0.004018   0.002082  -0.001309   0.173058   0.000216
    10  O   -0.001595  -0.002867  -0.004360   0.000158   0.176081   0.000275
    11  N   -0.035086  -0.019136  -0.001221   0.000279  -0.022958  -0.012625
    12  O   -0.006640  -0.003998  -0.000006   0.000095   0.000417   0.000142
    13  O    0.012275   0.000172   0.000078   0.000001   0.000054  -0.020043
    14  Br   0.243608  -0.007462   0.000345  -0.000208  -0.004418  -0.010426
    15  Br   0.242909  -0.012772   0.000709  -0.029991  -0.017768  -0.016386
               7          8          9         10         11         12
     1  Pt  -0.017824   0.009325  -0.002225  -0.001595  -0.035086  -0.006640
     2  N    0.000109   0.000131  -0.004018  -0.002867  -0.019136  -0.003998
     3  O    0.000000  -0.000003   0.002082  -0.004360  -0.001221  -0.000006
     4  O   -0.000001   0.000000  -0.001309   0.000158   0.000279   0.000095
     5  N   -0.000518  -0.018581   0.173058   0.176081  -0.022958   0.000417
     6  N    0.187409   0.165385   0.000216   0.000275  -0.012625   0.000142
     7  O    8.185101  -0.090219   0.000018  -0.000002   0.000243   0.000001
     8  O   -0.090219   8.215376   0.000102  -0.000153  -0.001746   0.000010
     9  O    0.000018   0.000102   8.207006  -0.094912   0.000266   0.000002
    10  O   -0.000002  -0.000153  -0.094912   8.185859  -0.012362   0.000153
    11  N    0.000243  -0.001746   0.000266  -0.012362   6.765152   0.177094
    12  O    0.000001   0.000010   0.000002   0.000153   0.177094   8.198224
    13  O    0.000271   0.000095   0.000001  -0.000049   0.169099  -0.092410
    14  Br   0.000610   0.000351   0.000118   0.000109  -0.025954  -0.005953
    15  Br  -0.018843   0.001459  -0.018329   0.000352  -0.004422   0.000100
              13         14         15
     1  Pt   0.012275   0.243608   0.242909
     2  N    0.000172  -0.007462  -0.012772
     3  O    0.000078   0.000345   0.000709
     4  O    0.000001  -0.000208  -0.029991
     5  N    0.000054  -0.004418  -0.017768
     6  N   -0.020043  -0.010426  -0.016386
     7  O    0.000271   0.000610  -0.018843
     8  O    0.000095   0.000351   0.001459
     9  O    0.000001   0.000118  -0.018329
    10  O   -0.000049   0.000109   0.000352
    11  N    0.169099  -0.025954  -0.004422
    12  O   -0.092410  -0.005953   0.000100
    13  O    8.208911   0.001069   0.000115
    14  Br   0.001069  34.878953  -0.026022
    15  Br   0.000115  -0.026022  34.897320
 Mulliken charges:
               1
     1  Pt   0.022972
     2  N    0.026438
     3  O   -0.252387
     4  O   -0.247287
     5  N    0.017097
     6  N    0.036460
     7  O   -0.246356
     8  O   -0.281532
     9  O   -0.262075
    10  O   -0.246685
    11  N    0.023379
    12  O   -0.267231
    13  O   -0.279639
    14  Br  -0.044720
    15  Br   0.001567
 Sum of Mulliken charges =  -2.00000
 Mulliken charges with hydrogens summed into heavy atoms:
               1
     1  Pt   0.022972
     2  N    0.026438
     3  O   -0.252387
     4  O   -0.247287
     5  N    0.017097
     6  N    0.036460
     7  O   -0.246356
     8  O   -0.281532
     9  O   -0.262075
    10  O   -0.246685
    11  N    0.023379
    12  O   -0.267231
    13  O   -0.279639
    14  Br  -0.044720
    15  Br   0.001567
 Electronic spatial extent (au):  <R**2>=           3922.2477
 Charge=             -2.0000 electrons
 Dipole moment (field-independent basis, Debye):
    X=             -0.4604    Y=             -4.7947    Z=             -0.9546  Tot=              4.9104
 Quadrupole moment (field-independent basis, Debye-Ang):
   XX=           -160.6357   YY=           -159.6607   ZZ=           -159.9681
   XY=              0.7001   XZ=              3.3515   YZ=              4.4707
 Traceless Quadrupole moment (field-independent basis, Debye-Ang):
   XX=             -0.5475   YY=              0.4274   ZZ=              0.1200
   XY=              0.7001   XZ=              3.3515   YZ=              4.4707
 Octapole moment (field-independent basis, Debye-Ang**2):
  XXX=             18.2161  YYY=            -77.2983  ZZZ=            -32.1658  XYY=             -8.1752
  XXY=            -39.6027  XXZ=              3.5281  XZZ=             -7.2654  YZZ=            -25.5773
  YYZ=             -1.4759  XYZ=              7.5242
 Hexadecapole moment (field-independent basis, Debye-Ang**3):
 XXXX=          -1722.7755 YYYY=          -1624.9273 ZZZZ=          -1426.7907 XXXY=             14.1965
 XXXZ=             27.2932 YYYX=            -24.0842 YYYZ=             51.6540 ZZZX=             34.1813
 ZZZY=             36.8450 XXYY=           -543.7208 XXZZ=           -506.3720 YYZZ=           -508.9503
 XXYZ=              9.3141 YYXZ=             10.3876 ZZXY=             15.8514
 N-N= 2.455041762370D+03 E-N=-1.944584039808D+04  KE= 5.993453120158D+03
   1 Symmetry operations used in ECPInt.
 ECPInt:  NShTT=    5460 NPrTT=   24557 LenC2=    5103 LenP2D=   15965.
 LDataN:  DoStor=T MaxTD1= 7 Len=  274
 D1PCM: PCM CHGder 1st derivatives, ID1Alg=3 FixD1E=F DoIter=F DoCFld=F I1PDM=0.
 Calling FoFJK, ICntrl=      2127 FMM=F ISym2X=0 I1Cent= 0 IOpClX= 0 NMat=1 NMatS=1 NMatT=0.
 Defaulting to unpruned grid for atomic number  78.
 Defaulting to unpruned grid for atomic number  78.
 Defaulting to unpruned grid for atomic number  78.
 Defaulting to unpruned grid for atomic number  78.
 Defaulting to unpruned grid for atomic number  78.
 Defaulting to unpruned grid for atomic number  78.
 Defaulting to unpruned grid for atomic number  78.
 Defaulting to unpruned grid for atomic number  78.
 ***** Axes restored to original set *****
 -------------------------------------------------------------------
 Center     Atomic                   Forces (Hartrees/Bohr)
 Number     Number              X              Y              Z
 -------------------------------------------------------------------
      1       78          -0.022812223   -0.041195315   -0.005408308
      2        7           0.108217813    0.165141511    0.077037601
      3        8          -0.017360484   -0.096812299    0.026990037
      4        8          -0.011748102   -0.050673618   -0.095683616
      5        7           0.177089957    0.109430406   -0.005618599
      6        7          -0.102214941    0.118446378    0.134671249
      7        8           0.019691380   -0.007867009   -0.103712079
      8        8           0.021097248   -0.092817209   -0.012587831
      9        8          -0.078861465   -0.015354160   -0.066176484
     10        8          -0.078539059   -0.018419558    0.066750569
     11        7          -0.056101731   -0.170839965   -0.105153061
     12        8          -0.035802062    0.094953732    0.022832568
     13        8           0.085405396    0.050004695    0.018906372
     14       35           0.002112199   -0.034365454    0.001431591
     15       35          -0.010173927   -0.009632135    0.045719991
 -------------------------------------------------------------------
 Cartesian Forces:  Max     0.177089957 RMS     0.076806742

 GradGradGradGradGradGradGradGradGradGradGradGradGradGradGradGradGradGrad
 Berny optimization.
 FormGI is forming the generalized inverse of G from B-inverse, IUseBI=4.
 Internal  Forces:  Max     0.099665700 RMS     0.038988762
 Search for a local minimum.
 Step number   1 out of a maximum of   90
 All quantities printed in internal units (Hartrees-Bohrs-Radians)
 Mixed Optimization -- RFO/linear search
 Second derivative matrix not updated -- first step.
 ITU=  0
     Eigenvalues ---    0.00230   0.00230   0.00230   0.00230   0.03391
     Eigenvalues ---    0.03424   0.04734   0.04734   0.06422   0.06423
     Eigenvalues ---    0.08233   0.08474   0.08487   0.08487   0.12615
     Eigenvalues ---    0.16743   0.16743   0.19509   0.19509   0.20378
     Eigenvalues ---    0.20378   0.20378   0.20378   0.25000   0.25000
     Eigenvalues ---    0.25000   0.25000   0.25000   0.25000   0.25000
     Eigenvalues ---    0.25000   0.52948   0.52948   0.52948   0.52948
     Eigenvalues ---    0.52948   0.52948   0.52948   0.52948
 RFO step:  Lambda=-2.29103340D-01 EMin= 2.30000000D-03
 Linear search not attempted -- first point.
 Maximum step size (   0.300) exceeded in Quadratic search.
    -- Step size scaled by   0.524
 Iteration  1 RMS(Cart)=  0.06984895 RMS(Int)=  0.00222970
 Iteration  2 RMS(Cart)=  0.00263674 RMS(Int)=  0.00098679
 Iteration  3 RMS(Cart)=  0.00000965 RMS(Int)=  0.00098677
 Iteration  4 RMS(Cart)=  0.00000003 RMS(Int)=  0.00098677
 Variable       Old X    -DE/DX   Delta X   Delta X   Delta X     New X
                                 (Linear)    (Quad)   (Total)
    R1        3.76056   0.07913   0.00000   0.09571   0.09571   3.85627
    R2        3.76056   0.07566   0.00000   0.09152   0.09152   3.85207
    R3        3.76056   0.06140   0.00000   0.07427   0.07427   3.83483
    R4        3.76056   0.06340   0.00000   0.07669   0.07669   3.83725
    R5        4.59203   0.03436   0.00000   0.04242   0.04242   4.63446
    R6        4.59203   0.04572   0.00000   0.05644   0.05644   4.64847
    R7        2.57003  -0.09363   0.00000  -0.06463  -0.06463   2.50540
    R8        2.57003  -0.09967   0.00000  -0.06880  -0.06880   2.50123
    R9        2.57003  -0.09810   0.00000  -0.06772  -0.06772   2.50231
   R10        2.57003  -0.09561   0.00000  -0.06600  -0.06600   2.50403
   R11        2.57003  -0.09769   0.00000  -0.06743  -0.06743   2.50259
   R12        2.57003  -0.08979   0.00000  -0.06198  -0.06198   2.50805
   R13        2.57003  -0.09710   0.00000  -0.06702  -0.06702   2.50300
   R14        2.57003  -0.09453   0.00000  -0.06525  -0.06525   2.50478
    A1        1.57080   0.00460   0.00000   0.00616   0.00611   1.57690
    A2        1.57080  -0.00403   0.00000  -0.00458  -0.00455   1.56625
    A3        1.57080  -0.00284   0.00000  -0.00323  -0.00318   1.56761
    A4        1.57080   0.01025   0.00000   0.01495   0.01490   1.58570
    A5        1.57080  -0.00868   0.00000  -0.01198  -0.01203   1.55876
    A6        1.57080  -0.00046   0.00000   0.00024   0.00025   1.57105
    A7        1.57080   0.00895   0.00000   0.01492   0.01484   1.58564
    A8        1.57080   0.00400   0.00000   0.00387   0.00392   1.57472
    A9        1.57080   0.00692   0.00000   0.00904   0.00910   1.57990
   A10        1.57080  -0.01022   0.00000  -0.01424  -0.01418   1.55662
   A11        1.57080  -0.00214   0.00000  -0.00488  -0.00489   1.56591
   A12        1.57080  -0.00635   0.00000  -0.01028  -0.01023   1.56056
   A13        1.91063   0.03104   0.00000   0.04225   0.04015   1.95079
   A14        1.91063   0.05192   0.00000   0.06506   0.06300   1.97364
   A15        1.91063  -0.01337   0.00000   0.00202  -0.00154   1.90910
   A16        1.91063   0.04525   0.00000   0.05903   0.05673   1.96736
   A17        1.91063   0.03462   0.00000   0.04741   0.04509   1.95573
   A18        1.91063  -0.00408   0.00000   0.01469   0.01077   1.92141
   A19        1.91063   0.03331   0.00000   0.04363   0.04246   1.95309
   A20        1.91063   0.02236   0.00000   0.03166   0.03048   1.94111
   A21        1.91063  -0.00344   0.00000   0.01069   0.00860   1.91924
   A22        1.91063   0.02697   0.00000   0.03830   0.03665   1.94728
   A23        1.91063   0.03525   0.00000   0.04735   0.04571   1.95634
   A24        1.91063   0.00191   0.00000   0.01973   0.01688   1.92751
   A25        3.14159  -0.00408   0.00000  -0.00582  -0.00592   3.13567
   A26        3.14159   0.00176   0.00000   0.00293   0.00293   3.14452
   A27        3.14159   0.00622   0.00000   0.01037   0.01035   3.15195
   A28        3.14159  -0.00003   0.00000  -0.00071  -0.00063   3.14096
   A29        3.14159   0.00260   0.00000   0.00464   0.00465   3.14624
   A30        3.14159   0.00849   0.00000   0.01516   0.01516   3.15675
    D1       -0.65581  -0.01383   0.00000  -0.02837  -0.02885  -0.68466
    D2        1.43858   0.02060   0.00000   0.03982   0.04034   1.47893
    D3        0.91499  -0.01429   0.00000  -0.02813  -0.02863   0.88636
    D4        3.00938   0.02014   0.00000   0.04006   0.04057   3.04995
    D5        2.48578  -0.01643   0.00000  -0.03301  -0.03350   2.45228
    D6       -1.70301   0.01800   0.00000   0.03517   0.03569  -1.66732
    D7       -2.22661  -0.02278   0.00000  -0.04329  -0.04379  -2.27039
    D8       -0.13221   0.01165   0.00000   0.02490   0.02541  -0.10681
    D9       -2.52842  -0.03196   0.00000  -0.06426  -0.06481  -2.59323
   D10       -0.43402  -0.00292   0.00000  -0.00612  -0.00627  -0.44029
   D11       -0.43402   0.00131   0.00000   0.00236   0.00247  -0.43156
   D12        1.66037   0.03035   0.00000   0.06050   0.06101   1.72139
   D13       -0.98912  -0.02228   0.00000  -0.03929  -0.04001  -1.02913
   D14        1.10528   0.02163   0.00000   0.04388   0.04463   1.14991
   D15        2.15247  -0.02226   0.00000  -0.03859  -0.03938   2.11309
   D16       -2.03632   0.02166   0.00000   0.04459   0.04526  -1.99105
   D17       -2.55991  -0.01825   0.00000  -0.03472  -0.03546  -2.59538
   D18       -0.46552   0.02566   0.00000   0.04846   0.04918  -0.41634
   D19        0.58168  -0.01203   0.00000  -0.02435  -0.02502   0.55666
   D20        2.67607   0.03188   0.00000   0.05883   0.05962   2.73570
   D21       -1.87261  -0.01926   0.00000  -0.03737  -0.03769  -1.91030
   D22        0.22179   0.01062   0.00000   0.02182   0.02210   0.24389
   D23        2.83978  -0.01880   0.00000  -0.03761  -0.03790   2.80189
   D24       -1.34901   0.01108   0.00000   0.02158   0.02189  -1.32711
   D25        1.26899  -0.01666   0.00000  -0.03272  -0.03304   1.23595
   D26       -2.91980   0.01323   0.00000   0.02647   0.02675  -2.89305
   D27       -0.30181  -0.01030   0.00000  -0.02245  -0.02268  -0.32449
   D28        1.79259   0.01958   0.00000   0.03675   0.03712   1.82970
   D29        0.84811  -0.02221   0.00000  -0.04179  -0.04227   0.80584
   D30        2.94251   0.01823   0.00000   0.03481   0.03541   2.97792
   D31        2.41891  -0.01761   0.00000  -0.03563  -0.03617   2.38274
   D32       -1.76988   0.02283   0.00000   0.04097   0.04152  -1.72836
   D33       -2.29348  -0.02629   0.00000  -0.04761  -0.04820  -2.34168
   D34       -0.19908   0.01415   0.00000   0.02900   0.02949  -0.16960
   D35       -0.72268  -0.01937   0.00000  -0.03856  -0.03911  -0.76180
   D36        1.37171   0.02107   0.00000   0.03804   0.03857   1.41028
         Item               Value     Threshold  Converged?
 Maximum Force            0.099666     0.000450     NO 
 RMS     Force            0.038989     0.000300     NO 
 Maximum Displacement     0.242258     0.001800     NO 
 RMS     Displacement     0.068145     0.001200     NO 
 Predicted change in Energy=-1.047850D-01
 GradGradGradGradGradGradGradGradGradGradGradGradGradGradGradGradGradGrad

                          Input orientation:                          
 ---------------------------------------------------------------------
 Center     Atomic      Atomic             Coordinates (Angstroms)
 Number     Number       Type             X           Y           Z
 ---------------------------------------------------------------------
      1         78           0       -0.315801    0.330345    0.026225
      2          7           0        1.724777    0.319089    0.013359
      3          8           0        2.216748    1.261131   -0.779273
      4          8           0        2.251981    0.441813    1.221206
      5          7           0       -0.317156    2.368639    0.002886
      6          7           0       -2.344941    0.353544    0.037604
      7          8           0       -2.836943   -0.036666    1.203571
      8          8           0       -2.813298    1.556075   -0.272273
      9          8           0        0.318870    2.892429    1.039483
     10          8           0        0.177136    2.853623   -1.126844
     11          7           0       -0.319502    0.306581   -2.004216
     12          8           0        0.527765   -0.592316   -2.482242
     13          8           0       -1.533236    0.107262   -2.498171
     14         35           0       -0.321421   -2.122040    0.042941
     15         35           0       -0.336989    0.321984    2.485986
 ---------------------------------------------------------------------
                    Distance matrix (angstroms):
                    1          2          3          4          5
     1  Pt   0.000000
     2  N    2.040650   0.000000
     3  O    2.815847   1.325800   0.000000
     4  O    2.834416   1.323594   2.162046   0.000000
     5  N    2.038428   2.893139   2.873850   3.434739   0.000000
     6  N    2.029304   4.069936   4.722288   4.747673   2.858973
     7  O    2.806599   4.727839   5.581733   5.111400   3.684626
     8  O    2.798035   4.712307   5.064129   5.397139   2.639450
     9  O    2.827326   3.106700   3.093695   3.126574   1.324166
    10  O    2.817709   3.181056   2.610910   3.954132   1.325075
    11  N    2.030583   2.872253   2.973922   4.127246   2.877595
    12  O    2.802733   2.914022   3.031177   4.214010   3.956894
    13  O    2.811492   4.119138   4.283504   5.317289   3.584406
    14  Br   2.452448   3.185422   4.308617   3.818907   4.490860
    15  Br   2.459867   3.219436   4.250351   2.883885   3.217914
                    6          7          8          9         10
     6  N    0.000000
     7  O    1.324315   0.000000
     8  O    1.327201   2.171520   0.000000
     9  O    3.813867   4.308791   3.649249   0.000000
    10  O    3.737272   4.782183   3.369958   2.171306   0.000000
    11  N    2.876393   4.092093   3.283273   4.044531   2.739316
    12  O    3.936586   5.021476   4.545575   4.958794   3.719481
    13  O    2.673887   3.927246   2.948260   4.868516   3.514030
    14  Br   3.197370   3.467520   4.453912   5.152471   5.135579
    15  Br   3.166614   2.832488   3.906799   3.021540   4.441403
                   11         12         13         14         15
    11  N    0.000000
    12  O    1.324532   0.000000
    13  O    1.325470   2.176554   0.000000
    14  Br   3.176327   3.072087   3.591035   0.000000
    15  Br   4.490262   5.125137   5.130198   3.455714   0.000000
 Stoichiometry    Br2N4O8Pt(2-)
 Framework group  C1[X(Br2N4O8Pt)]
 Deg. of freedom    39
 Full point group                 C1      NOp   1
 Largest Abelian subgroup         C1      NOp   1
 Largest concise Abelian subgroup C1      NOp   1
                         Standard orientation:                         
 ---------------------------------------------------------------------
 Center     Atomic      Atomic             Coordinates (Angstroms)
 Number     Number       Type             X           Y           Z
 ---------------------------------------------------------------------
      1         78           0       -0.088339    0.170688    0.062812
      2          7           0        0.072977    0.695029   -1.902715
      3          8           0       -0.037328    2.005239   -2.072795
      4          8           0        1.195689    0.272435   -2.462032
      5          7           0        0.994899    1.811055    0.602240
      6          7           0       -0.243437   -0.340354    2.020579
      7          8           0        0.477717   -1.412762    2.309868
      8          8           0        0.107143    0.667779    2.809390
      9          8           0        2.200881    1.829964    0.055736
     10          8           0        0.355534    2.940052    0.333164
     11          7           0       -1.799836    1.254525    0.201893
     12          8           0       -2.612067    1.014957   -0.816573
     13          8           0       -2.426815    1.050779    1.351787
     14         35           0       -1.401780   -1.798620   -0.578436
     15         35           0        1.962699   -1.178610   -0.090755
 ---------------------------------------------------------------------
 Rotational constants (GHZ):      0.3780274      0.3635528      0.3143603
 Basis read from rwf:  (5D, 7F)
 Pseudo-potential data read from rwf file.
 There are   274 symmetry adapted cartesian basis functions of A   symmetry.
 There are   254 symmetry adapted basis functions of A   symmetry.
   254 basis functions,   503 primitive gaussians,   274 cartesian basis functions
    91 alpha electrons       91 beta electrons
       nuclear repulsion energy      2418.4955234980 Hartrees.
 NAtoms=   15 NActive=   15 NUniq=   15 SFac= 1.00D+00 NAtFMM=   60 NAOKFM=F Big=F
 Integral buffers will be    131072 words long.
 Raffenetti 2 integral format.
 Two-electron integral symmetry is turned on.
 ------------------------------------------------------------------------------
 Polarizable Continuum Model (PCM)
 =================================
 Model                : PCM (using non-symmetric T matrix).
 Atomic radii         : UFF (Universal Force Field).
 Polarization charges : Total charges.
 Charge compensation  : None.
 Solution method      : On-the-fly selection.
 Cavity type          : Scaled VdW (van der Waals Surface) (Alpha=1.100).
 Cavity algorithm     : GePol (No added spheres)
                        Default sphere list used, NSphG=   15.
                        Lebedev-Laikov grids with approx.  5.0 points / Ang**2.
                        Smoothing algorithm: Karplus/York (Gamma=1.0000).
                        Polarization charges: spherical gaussians, with
                                              point-specific exponents (IZeta= 3).
                        Self-potential: point-specific (ISelfS= 7).
                        Self-field    : sphere-specific E.n sum rule (ISelfD= 2).
 1st derivatives      : Analytical E(r).r(x)/FMM algorithm (CHGder, D1EAlg=3).
                        Cavity 1st derivative terms included.
 Solvent              : Water, Eps=  78.355300 Eps(inf)=   1.777849
 ------------------------------------------------------------------------------
 Spheres list:
 ISph  on   Nord     Re0    Alpha      Xe            Ye            Ze
    1  Pt      1    1.3770  1.100     -0.088339      0.170688      0.062812
    2   N      2    1.8300  1.100      0.072977      0.695029     -1.902715
    3   O      3    1.7500  1.100     -0.037328      2.005239     -2.072795
    4   O      4    1.7500  1.100      1.195689      0.272435     -2.462032
    5   N      5    1.8300  1.100      0.994899      1.811055      0.602240
    6   N      6    1.8300  1.100     -0.243437     -0.340354      2.020579
    7   O      7    1.7500  1.100      0.477717     -1.412762      2.309868
    8   O      8    1.7500  1.100      0.107143      0.667779      2.809390
    9   O      9    1.7500  1.100      2.200881      1.829964      0.055736
   10   O     10    1.7500  1.100      0.355534      2.940052      0.333164
   11   N     11    1.8300  1.100     -1.799836      1.254525      0.201893
   12   O     12    1.7500  1.100     -2.612067      1.014957     -0.816573
   13   O     13    1.7500  1.100     -2.426815      1.050779      1.351787
   14  Br     14    2.0945  1.100     -1.401780     -1.798620     -0.578436
   15  Br     15    2.0945  1.100      1.962699     -1.178610     -0.090755
 ------------------------------------------------------------------------------
 One-electron integrals computed using PRISM.
   1 Symmetry operations used in ECPInt.
 ECPInt:  NShTT=    5460 NPrTT=   24557 LenC2=    5090 LenP2D=   15846.
 LDataN:  DoStor=T MaxTD1= 6 Len=  172
 NBasis=   254 RedAO= T EigKep=  3.03D-03  NBF=   254
 NBsUse=   254 1.00D-06 EigRej= -1.00D+00 NBFU=   254
 Defaulting to unpruned grid for atomic number  78.
 Initial guess from the checkpoint file:  "/home/scr/diego/Gau-22333.chk"
 B after Tr=     0.000000    0.000000    0.000000
         Rot=    0.998786    0.007352   -0.014173   -0.046592 Ang=   5.65 deg.
 ExpMin= 2.90D-02 ExpMax= 1.13D+05 ExpMxC= 1.70D+04 IAcc=3 IRadAn=         5 AccDes= 0.00D+00
 Harris functional with IExCor=  402 and IRadAn=       5 diagonalized for initial guess.
 HarFok:  IExCor=  402 AccDes= 0.00D+00 IRadAn=         5 IDoV= 1 UseB2=F ITyADJ=14
 ICtDFT=  3500011 ScaDFX=  1.000000  1.000000  1.000000  1.000000
 Defaulting to unpruned grid for atomic number  78.
 Defaulting to unpruned grid for atomic number  78.
 Defaulting to unpruned grid for atomic number  78.
 Defaulting to unpruned grid for atomic number  78.
 Defaulting to unpruned grid for atomic number  78.
 Defaulting to unpruned grid for atomic number  78.
 Defaulting to unpruned grid for atomic number  78.
 Defaulting to unpruned grid for atomic number  78.
 FoFCou: FMM=F IPFlag=           0 FMFlag=      100000 FMFlg1=           0
         NFxFlg=           0 DoJE=T BraDBF=F KetDBF=T FulRan=T
         wScrn=  0.000000 ICntrl=     500 IOpCl=  0 I1Cent=   200000004 NGrid=           0
         NMat0=    1 NMatS0=      1 NMatT0=    0 NMatD0=    1 NMtDS0=    0 NMtDT0=    0
 Petite list used in FoFCou.
 Keep R1 ints in memory in canonical form, NReq=535056607.
 Requested convergence on RMS density matrix=1.00D-08 within 128 cycles.
 Requested convergence on MAX density matrix=1.00D-06.
 Requested convergence on             energy=1.00D-06.
 No special actions if energy rises.
 Defaulting to unpruned grid for atomic number  78.
 Defaulting to unpruned grid for atomic number  78.
 Defaulting to unpruned grid for atomic number  78.
 Defaulting to unpruned grid for atomic number  78.
 Defaulting to unpruned grid for atomic number  78.
 Defaulting to unpruned grid for atomic number  78.
 Defaulting to unpruned grid for atomic number  78.
 Defaulting to unpruned grid for atomic number  78.
 Inv3:  Mode=1 IEnd=     9860907.
 Iteration    1 A*A^-1 deviation from unit magnitude is 6.66D-15 for    224.
 Iteration    1 A*A^-1 deviation from orthogonality  is 4.71D-15 for   1283     16.
 Iteration    1 A^-1*A deviation from unit magnitude is 6.22D-15 for    111.
 Iteration    1 A^-1*A deviation from orthogonality  is 1.02D-10 for   1308   1283.
 Iteration    2 A*A^-1 deviation from unit magnitude is 9.55D-15 for    111.
 Iteration    2 A*A^-1 deviation from orthogonality  is 1.01D-14 for   1283     16.
 Iteration    2 A^-1*A deviation from unit magnitude is 1.78D-15 for    112.
 Iteration    2 A^-1*A deviation from orthogonality  is 6.20D-16 for   1596    556.
 Error on total polarization charges =  0.00931
 SCF Done:  E(RB3LYP) =  -6086.87890780     A.U. after   18 cycles
            NFock= 18  Conv=0.51D-08     -V/T= 2.0156
   1 Symmetry operations used in ECPInt.
 ECPInt:  NShTT=    5460 NPrTT=   24557 LenC2=    5090 LenP2D=   15846.
 LDataN:  DoStor=T MaxTD1= 7 Len=  274
 D1PCM: PCM CHGder 1st derivatives, ID1Alg=3 FixD1E=F DoIter=F DoCFld=F I1PDM=0.
 Calling FoFJK, ICntrl=      2127 FMM=F ISym2X=0 I1Cent= 0 IOpClX= 0 NMat=1 NMatS=1 NMatT=0.
 Defaulting to unpruned grid for atomic number  78.
 Defaulting to unpruned grid for atomic number  78.
 Defaulting to unpruned grid for atomic number  78.
 Defaulting to unpruned grid for atomic number  78.
 Defaulting to unpruned grid for atomic number  78.
 Defaulting to unpruned grid for atomic number  78.
 Defaulting to unpruned grid for atomic number  78.
 Defaulting to unpruned grid for atomic number  78.
 ***** Axes restored to original set *****
 -------------------------------------------------------------------
 Center     Atomic                   Forces (Hartrees/Bohr)
 Number     Number              X              Y              Z
 -------------------------------------------------------------------
      1       78          -0.016832674   -0.028264827   -0.010155416
      2        7           0.101275007    0.152866224    0.067765043
      3        8          -0.029213923   -0.082889616    0.013285425
      4        8          -0.026461890   -0.050834163   -0.072685630
      5        7           0.159534474    0.099795868   -0.007155335
      6        7          -0.090938663    0.110219639    0.122149383
      7        8           0.024126222   -0.016171736   -0.088033470
      8        8           0.025038025   -0.077681077   -0.019299095
      9        8          -0.069746715   -0.026732704   -0.047012310
     10        8          -0.068952350   -0.027031511    0.050980323
     11        7          -0.049385732   -0.152668291   -0.094138328
     12        8          -0.024173729    0.082673399    0.025933031
     13        8           0.068445382    0.048208797    0.025897593
     14       35           0.001711388   -0.025941406    0.001398076
     15       35          -0.004424825   -0.005548597    0.031070709
 -------------------------------------------------------------------
 Cartesian Forces:  Max     0.159534474 RMS     0.068352833

 GradGradGradGradGradGradGradGradGradGradGradGradGradGradGradGradGradGrad
 Berny optimization.
 Using GEDIIS/GDIIS optimizer.
 FormGI is forming the generalized inverse of G from B-inverse, IUseBI=4.
 Internal  Forces:  Max     0.081698651 RMS     0.030612026
 Search for a local minimum.
 Step number   2 out of a maximum of   90
 All quantities printed in internal units (Hartrees-Bohrs-Radians)
 Mixed Optimization -- RFO/linear search
 Update second derivatives using D2CorX and points    1    2
 DE= -1.06D-01 DEPred=-1.05D-01 R= 1.01D+00
 TightC=F SS=  1.41D+00  RLast= 3.75D-01 DXNew= 5.0454D-01 1.1248D+00
 Trust test= 1.01D+00 RLast= 3.75D-01 DXMaxT set to 5.05D-01
 ITU=  1  0
 Use linear search instead of GDIIS.
 Linear search step of   0.595 exceeds DXMaxT=   0.505 but not scaled.
 Quartic linear search produced a step of  2.00000.
 Iteration  1 RMS(Cart)=  0.13021242 RMS(Int)=  0.00950456
 Iteration  2 RMS(Cart)=  0.00901955 RMS(Int)=  0.00538165
 Iteration  3 RMS(Cart)=  0.00012605 RMS(Int)=  0.00538091
 Iteration  4 RMS(Cart)=  0.00000157 RMS(Int)=  0.00538091
 Iteration  5 RMS(Cart)=  0.00000002 RMS(Int)=  0.00538091
 Variable       Old X    -DE/DX   Delta X   Delta X   Delta X     New X
                                 (Linear)    (Quad)   (Total)
    R1        3.85627   0.04544   0.19143   0.00000   0.19143   4.04770
    R2        3.85207   0.04606   0.18303   0.00000   0.18303   4.03510
    R3        3.83483   0.04204   0.14855   0.00000   0.14855   3.98338
    R4        3.83725   0.04259   0.15338   0.00000   0.15338   3.99063
    R5        4.63446   0.02595   0.08484   0.00000   0.08484   4.71930
    R6        4.64847   0.03112   0.11288   0.00000   0.11288   4.76135
    R7        2.50540  -0.07765  -0.12926   0.00000  -0.12926   2.37614
    R8        2.50123  -0.08158  -0.13759   0.00000  -0.13759   2.36364
    R9        2.50231  -0.08088  -0.13543   0.00000  -0.13543   2.36688
   R10        2.50403  -0.07911  -0.13200   0.00000  -0.13200   2.37203
   R11        2.50259  -0.08170  -0.13487   0.00000  -0.13487   2.36772
   R12        2.50805  -0.07475  -0.12396   0.00000  -0.12396   2.38408
   R13        2.50300  -0.08094  -0.13405   0.00000  -0.13405   2.36895
   R14        2.50478  -0.07958  -0.13050   0.00000  -0.13050   2.37427
    A1        1.57690  -0.00455   0.01222   0.00000   0.01196   1.58887
    A2        1.56625  -0.00069  -0.00909   0.00000  -0.00894   1.55731
    A3        1.56761   0.00230  -0.00636   0.00000  -0.00616   1.56145
    A4        1.58570   0.00306   0.02980   0.00000   0.02954   1.61524
    A5        1.55876  -0.00450  -0.02406   0.00000  -0.02429   1.53447
    A6        1.57105   0.00007   0.00051   0.00000   0.00058   1.57163
    A7        1.58564   0.00506   0.02968   0.00000   0.02918   1.61481
    A8        1.57472   0.00201   0.00784   0.00000   0.00808   1.58280
    A9        1.57990   0.00676   0.01821   0.00000   0.01847   1.59837
   A10        1.55662  -0.00422  -0.02836   0.00000  -0.02794   1.52867
   A11        1.56591  -0.00126  -0.00978   0.00000  -0.00982   1.55609
   A12        1.56056  -0.00385  -0.02047   0.00000  -0.02020   1.54037
   A13        1.95079   0.00497   0.08031   0.00000   0.06744   2.01823
   A14        1.97364   0.02208   0.12601   0.00000   0.11357   2.08721
   A15        1.90910   0.00857  -0.00307   0.00000  -0.02062   1.88848
   A16        1.96736   0.02035   0.11346   0.00000   0.09885   2.06621
   A17        1.95573   0.01243   0.09019   0.00000   0.07535   2.03108
   A18        1.92141   0.01117   0.02155   0.00000   0.00171   1.92312
   A19        1.95309   0.01988   0.08492   0.00000   0.07758   2.03067
   A20        1.94111   0.00735   0.06096   0.00000   0.05346   1.99457
   A21        1.91924   0.00805   0.01721   0.00000   0.00627   1.92550
   A22        1.94728   0.01485   0.07330   0.00000   0.06251   2.00979
   A23        1.95634   0.01600   0.09142   0.00000   0.08077   2.03712
   A24        1.92751   0.01209   0.03376   0.00000   0.01876   1.94628
   A25        3.13567  -0.00905  -0.01185   0.00000  -0.01233   3.12334
   A26        3.14452  -0.00225   0.00585   0.00000   0.00580   3.15032
   A27        3.15195   0.00237   0.02070   0.00000   0.02060   3.17255
   A28        3.14096   0.00132  -0.00126   0.00000  -0.00087   3.14010
   A29        3.14624   0.00118   0.00930   0.00000   0.00934   3.15559
   A30        3.15675   0.00510   0.03032   0.00000   0.03030   3.18706
    D1       -0.68466  -0.01441  -0.05770   0.00000  -0.05971  -0.74438
    D2        1.47893   0.01786   0.08068   0.00000   0.08294   1.56187
    D3        0.88636  -0.01432  -0.05725   0.00000  -0.05935   0.82701
    D4        3.04995   0.01794   0.08113   0.00000   0.08330   3.13325
    D5        2.45228  -0.01559  -0.06701   0.00000  -0.06906   2.38322
    D6       -1.66732   0.01668   0.07138   0.00000   0.07359  -1.59372
    D7       -2.27039  -0.01942  -0.08757   0.00000  -0.08965  -2.36005
    D8       -0.10681   0.01285   0.05081   0.00000   0.05300  -0.05380
    D9       -2.59323  -0.02909  -0.12963   0.00000  -0.13170  -2.72493
   D10       -0.44029  -0.00122  -0.01254   0.00000  -0.01296  -0.45325
   D11       -0.43156  -0.00015   0.00493   0.00000   0.00506  -0.42649
   D12        1.72139   0.02773   0.12202   0.00000   0.12380   1.84519
   D13       -1.02913  -0.01867  -0.08002   0.00000  -0.08291  -1.11204
   D14        1.14991   0.02212   0.08927   0.00000   0.09228   1.24219
   D15        2.11309  -0.01999  -0.07876   0.00000  -0.08204   2.03105
   D16       -1.99105   0.02079   0.09052   0.00000   0.09314  -1.89791
   D17       -2.59538  -0.01798  -0.07093   0.00000  -0.07398  -2.66936
   D18       -0.41634   0.02281   0.09836   0.00000   0.10121  -0.31514
   D19        0.55666  -0.01564  -0.05003   0.00000  -0.05261   0.50405
   D20        2.73570   0.02514   0.11925   0.00000   0.12257   2.85827
   D21       -1.91030  -0.01792  -0.07538   0.00000  -0.07692  -1.98721
   D22        0.24389   0.01251   0.04420   0.00000   0.04547   0.28936
   D23        2.80189  -0.01795  -0.07579   0.00000  -0.07711   2.72478
   D24       -1.32711   0.01248   0.04379   0.00000   0.04528  -1.28183
   D25        1.23595  -0.01674  -0.06608   0.00000  -0.06758   1.16837
   D26       -2.89305   0.01369   0.05350   0.00000   0.05481  -2.83825
   D27       -0.32449  -0.01275  -0.04535   0.00000  -0.04631  -0.37080
   D28        1.82970   0.01769   0.07423   0.00000   0.07607   1.90578
   D29        0.80584  -0.01653  -0.08455   0.00000  -0.08664   0.71921
   D30        2.97792   0.02288   0.07082   0.00000   0.07345   3.05137
   D31        2.38274  -0.02108  -0.07233   0.00000  -0.07468   2.30806
   D32       -1.72836   0.01833   0.08303   0.00000   0.08540  -1.64296
   D33       -2.34168  -0.02558  -0.09639   0.00000  -0.09897  -2.44064
   D34       -0.16960   0.01383   0.05897   0.00000   0.06112  -0.10848
   D35       -0.76180  -0.01884  -0.07823   0.00000  -0.08065  -0.84245
   D36        1.41028   0.02057   0.07714   0.00000   0.07943   1.48972
         Item               Value     Threshold  Converged?
 Maximum Force            0.081699     0.000450     NO 
 RMS     Force            0.030612     0.000300     NO 
 Maximum Displacement     0.417498     0.001800     NO 
 RMS     Displacement     0.124831     0.001200     NO 
 Predicted change in Energy=-1.278371D-01
 GradGradGradGradGradGradGradGradGradGradGradGradGradGradGradGradGradGrad

                          Input orientation:                          
 ---------------------------------------------------------------------
 Center     Atomic      Atomic             Coordinates (Angstroms)
 Number     Number       Type             X           Y           Z
 ---------------------------------------------------------------------
      1         78           0       -0.306197    0.317882    0.075378
      2          7           0        1.835158    0.285561    0.036630
      3          8           0        2.376849    1.085876   -0.767806
      4          8           0        2.472912    0.320981    1.112023
      5          7           0       -0.313819    2.452050    0.006732
      6          7           0       -2.412671    0.388036    0.109105
      7          8           0       -2.965737   -0.014046    1.159020
      8          8           0       -2.900604    1.495747   -0.246615
      9          8           0        0.190282    3.080441    0.965773
     10          8           0        0.027298    2.976125   -1.081650
     11          7           0       -0.316950    0.248197   -2.035194
     12          8           0        0.523097   -0.528947   -2.546929
     13          8           0       -1.438856    0.144875   -2.591268
     14         35           0       -0.319721   -2.179007    0.121134
     15         35           0       -0.373050    0.287722    2.593910
 ---------------------------------------------------------------------
                    Distance matrix (angstroms):
                    1          2          3          4          5
     1  Pt   0.000000
     2  N    2.141949   0.000000
     3  O    2.915392   1.257399   0.000000
     4  O    2.966157   1.250782   2.031761   0.000000
     5  N    2.135285   3.051667   3.115451   3.678178   0.000000
     6  N    2.107912   4.249683   4.918888   4.987912   2.945473
     7  O    2.890953   4.939445   5.784956   5.449161   3.800271
     8  O    2.867402   4.896143   5.318942   5.665743   2.769504
     9  O    2.944661   3.373467   3.429966   3.584189   1.252499
    10  O    2.918252   3.429001   3.031820   4.224100   1.255226
    11  N    2.111749   2.987543   3.092658   4.206376   3.004403
    12  O    2.877732   3.009934   3.034687   4.232268   4.013471
    13  O    2.902387   4.200572   4.332447   5.389555   3.652173
    14  Br   2.497344   3.274864   4.326796   3.876932   4.632473
    15  Br   2.519600   3.378738   4.415896   3.208831   3.373621
                    6          7          8          9         10
     6  N    0.000000
     7  O    1.252945   0.000000
     8  O    1.261602   2.063862   0.000000
     9  O    3.841652   4.424212   3.678956   0.000000
    10  O    3.750940   4.787482   3.385471   2.056548   0.000000
    11  N    3.001603   4.157865   3.380926   4.157487   2.910214
    12  O    4.063756   5.115774   4.594840   5.047527   3.831238
    13  O    2.880878   4.052318   3.075543   4.891236   3.527681
    14  Br   3.312143   3.572907   4.505553   5.351197   5.304950
    15  Br   3.216267   2.978590   3.989541   3.281380   4.571383
                   11         12         13         14         15
    11  N    0.000000
    12  O    1.253596   0.000000
    13  O    1.256410   2.074912   0.000000
    14  Br   3.246702   3.248323   3.742995   0.000000
    15  Br   4.629612   5.281880   5.295509   3.493167   0.000000
 Stoichiometry    Br2N4O8Pt(2-)
 Framework group  C1[X(Br2N4O8Pt)]
 Deg. of freedom    39
 Full point group                 C1      NOp   1
 Largest Abelian subgroup         C1      NOp   1
 Largest concise Abelian subgroup C1      NOp   1
                         Standard orientation:                         
 ---------------------------------------------------------------------
 Center     Atomic      Atomic             Coordinates (Angstroms)
 Number     Number       Type             X           Y           Z
 ---------------------------------------------------------------------
      1         78           0       -0.144060    0.113386    0.050498
      2          7           0       -0.426575    0.460286   -2.044207
      3          8           0       -1.210771    1.397787   -2.339471
      4          8           0        0.568862    0.531454   -2.798194
      5          7           0       -0.017022    2.212538    0.420453
      6          7           0        0.132999   -0.189886    2.117998
      7          8           0        1.197587   -0.755585    2.459332
      8          8           0       -0.063259    0.837181    2.823869
      9          8           0        0.932276    2.850694   -0.089788
     10          8           0       -1.084700    2.863526    0.311500
     11          7           0       -2.237519    0.191386    0.316639
     12          8           0       -2.909179   -0.388306   -0.568987
     13          8           0       -2.670742   -0.067946    1.467130
     14         35           0       -0.324354   -2.344046   -0.356010
     15         35           0        2.352723   -0.104950   -0.207938
 ---------------------------------------------------------------------
 Rotational constants (GHZ):      0.3496340      0.3429927      0.2999905
 Basis read from rwf:  (5D, 7F)
 Pseudo-potential data read from rwf file.
 There are   274 symmetry adapted cartesian basis functions of A   symmetry.
 There are   254 symmetry adapted basis functions of A   symmetry.
   254 basis functions,   503 primitive gaussians,   274 cartesian basis functions
    91 alpha electrons       91 beta electrons
       nuclear repulsion energy      2358.6567418812 Hartrees.
 NAtoms=   15 NActive=   15 NUniq=   15 SFac= 1.00D+00 NAtFMM=   60 NAOKFM=F Big=F
 Integral buffers will be    131072 words long.
 Raffenetti 2 integral format.
 Two-electron integral symmetry is turned on.
 ------------------------------------------------------------------------------
 Polarizable Continuum Model (PCM)
 =================================
 Model                : PCM (using non-symmetric T matrix).
 Atomic radii         : UFF (Universal Force Field).
 Polarization charges : Total charges.
 Charge compensation  : None.
 Solution method      : On-the-fly selection.
 Cavity type          : Scaled VdW (van der Waals Surface) (Alpha=1.100).
 Cavity algorithm     : GePol (No added spheres)
                        Default sphere list used, NSphG=   15.
                        Lebedev-Laikov grids with approx.  5.0 points / Ang**2.
                        Smoothing algorithm: Karplus/York (Gamma=1.0000).
                        Polarization charges: spherical gaussians, with
                                              point-specific exponents (IZeta= 3).
                        Self-potential: point-specific (ISelfS= 7).
                        Self-field    : sphere-specific E.n sum rule (ISelfD= 2).
 1st derivatives      : Analytical E(r).r(x)/FMM algorithm (CHGder, D1EAlg=3).
                        Cavity 1st derivative terms included.
 Solvent              : Water, Eps=  78.355300 Eps(inf)=   1.777849
 ------------------------------------------------------------------------------
 Spheres list:
 ISph  on   Nord     Re0    Alpha      Xe            Ye            Ze
    1  Pt      1    1.3770  1.100     -0.144060      0.113386      0.050498
    2   N      2    1.8300  1.100     -0.426575      0.460286     -2.044207
    3   O      3    1.7500  1.100     -1.210771      1.397787     -2.339471
    4   O      4    1.7500  1.100      0.568862      0.531454     -2.798194
    5   N      5    1.8300  1.100     -0.017022      2.212538      0.420453
    6   N      6    1.8300  1.100      0.132999     -0.189886      2.117998
    7   O      7    1.7500  1.100      1.197587     -0.755585      2.459332
    8   O      8    1.7500  1.100     -0.063259      0.837181      2.823869
    9   O      9    1.7500  1.100      0.932276      2.850694     -0.089788
   10   O     10    1.7500  1.100     -1.084700      2.863526      0.311500
   11   N     11    1.8300  1.100     -2.237519      0.191386      0.316639
   12   O     12    1.7500  1.100     -2.909179     -0.388306     -0.568987
   13   O     13    1.7500  1.100     -2.670742     -0.067946      1.467130
   14  Br     14    2.0945  1.100     -0.324354     -2.344046     -0.356010
   15  Br     15    2.0945  1.100      2.352723     -0.104950     -0.207938
 ------------------------------------------------------------------------------
 One-electron integrals computed using PRISM.
   1 Symmetry operations used in ECPInt.
 ECPInt:  NShTT=    5460 NPrTT=   24557 LenC2=    5055 LenP2D=   15670.
 LDataN:  DoStor=T MaxTD1= 6 Len=  172
 NBasis=   254 RedAO= T EigKep=  3.47D-03  NBF=   254
 NBsUse=   254 1.00D-06 EigRej= -1.00D+00 NBFU=   254
[...]
   A13        2.02731   0.00012   0.00000   0.00103   0.00103   2.02834
   A14        2.10694  -0.00018   0.00000  -0.00114  -0.00114   2.10579
   A15        2.14848   0.00006   0.00000   0.00007   0.00007   2.14855
   A16        2.09412  -0.00013   0.00000   0.00094   0.00094   2.09506
   A17        2.01955   0.00015   0.00000  -0.00072  -0.00072   2.01884
   A18        2.16870  -0.00002   0.00000  -0.00013  -0.00013   2.16857
   A19        2.10700  -0.00009   0.00000  -0.00111  -0.00111   2.10589
   A20        2.02910  -0.00001   0.00000   0.00093   0.00093   2.03003
   A21        2.14663   0.00010   0.00000   0.00020   0.00020   2.14683
   A22        2.06820   0.00015   0.00000  -0.00017  -0.00017   2.06803
   A23        2.04241   0.00013   0.00000   0.00081   0.00081   2.04323
   A24        2.17244  -0.00028   0.00000  -0.00061  -0.00061   2.17182
   A25        3.06494   0.00029   0.00000   0.00302   0.00302   3.06796
   A26        3.10815  -0.00003   0.00000   0.00113   0.00114   3.10929
   A27        3.17807  -0.00015   0.00000  -0.00372  -0.00372   3.17436
   A28        3.18842   0.00016   0.00000   0.00233   0.00234   3.19076
   A29        3.24600   0.00005   0.00000   0.00292   0.00292   3.24892
   A30        3.18132  -0.00012   0.00000  -0.00237  -0.00238   3.17895
    D1       -0.51030  -0.00005   0.00000   0.00896   0.00896  -0.50135
    D2        2.59975  -0.00007   0.00000   0.00729   0.00729   2.60704
    D3        1.04481   0.00005   0.00000   0.00945   0.00945   1.05426
    D4       -2.12832   0.00003   0.00000   0.00778   0.00778  -2.12054
    D5        2.52689  -0.00009   0.00000   0.00604   0.00604   2.53292
    D6       -0.64624  -0.00012   0.00000   0.00437   0.00437  -0.64187
    D7       -2.13651   0.00017   0.00000   0.01182   0.01183  -2.12469
    D8        0.97354   0.00015   0.00000   0.01015   0.01016   0.98370
    D9        2.84983   0.00003   0.00000   0.02280   0.02279   2.87262
   D10       -0.35548   0.00002   0.00000   0.02196   0.02197  -0.33351
   D11       -0.36632   0.00001   0.00000   0.02107   0.02105  -0.34527
   D12        2.71156   0.00000   0.00000   0.02023   0.02023   2.73178
   D13       -1.25476   0.00006   0.00000  -0.00414  -0.00414  -1.25890
   D14        1.84540   0.00015   0.00000  -0.00174  -0.00174   1.84366
   D15        1.84000  -0.00010   0.00000  -0.00647  -0.00648   1.83353
   D16       -1.34303  -0.00001   0.00000  -0.00407  -0.00408  -1.34710
   D17       -2.85884  -0.00001   0.00000  -0.00518  -0.00518  -2.86402
   D18        0.24132   0.00007   0.00000  -0.00278  -0.00278   0.23854
   D19        0.31667  -0.00014   0.00000  -0.00865  -0.00865   0.30802
   D20       -2.86635  -0.00006   0.00000  -0.00625  -0.00625  -2.87260
   D21       -2.95918   0.00005   0.00000   0.01301   0.01302  -2.94616
   D22        0.15087   0.00009   0.00000   0.01361   0.01360   0.16447
   D23        1.76701  -0.00005   0.00000   0.01254   0.01255   1.77956
   D24       -1.40613  -0.00001   0.00000   0.01313   0.01313  -1.39300
   D25        0.28524   0.00008   0.00000   0.01589   0.01590   0.30114
   D26       -2.88790   0.00013   0.00000   0.01649   0.01648  -2.87142
   D27       -1.33211  -0.00020   0.00000   0.00978   0.00979  -1.32231
   D28        1.77794  -0.00015   0.00000   0.01038   0.01038   1.78832
   D29        0.10593  -0.00020   0.00000  -0.01508  -0.01508   0.09085
   D30       -3.05266  -0.00016   0.00000  -0.01305  -0.01305  -3.06570
   D31        1.61341  -0.00002   0.00000  -0.01270  -0.01270   1.60070
   D32       -1.54518   0.00002   0.00000  -0.01067  -0.01067  -1.55585
   D33       -3.11298   0.00009   0.00000  -0.01207  -0.01207  -3.12505
   D34        0.01162   0.00013   0.00000  -0.01004  -0.01004   0.00159
   D35       -1.49149   0.00001   0.00000  -0.01363  -0.01363  -1.50512
   D36        1.63311   0.00006   0.00000  -0.01160  -0.01159   1.62152
         Item               Value     Threshold  Converged?
 Maximum Force            0.000285     0.000450     YES
 RMS     Force            0.000126     0.000300     YES
 Maximum Displacement     0.028700     0.001800     NO 
 RMS     Displacement     0.007694     0.001200     NO 
 Predicted change in Energy=-1.026820D-05
 GradGradGradGradGradGradGradGradGradGradGradGradGradGradGradGradGradGrad

 1\1\GINC-NEQC17\Freq\RB3LYP\Gen\Br2N4O8Pt1(2-)\DIEGO\18-Aug-2021\0\\#N
  Geom=AllCheck Guess=TCheck SCRF=Check GenChk RB3LYP/ChkBas Freq\\Estr
 utura 65\\-2,1\Pt,-0.2693164258,0.3703476233,0.1647411021\N,1.86473038
 14,0.3769631207,0.1491603262\O,2.3965382291,1.2491236885,-0.5245146037
 \O,2.4936100434,-0.4296145084,0.8082839006\N,-0.1445262935,2.470798469
 5,-0.1439354073\N,-2.3998961758,0.5401994459,0.2556473052\O,-3.0832395
 444,-0.3982728355,0.6194769581\O,-2.8689455271,1.6293534927,-0.0422599
 528\O,0.2234404382,3.1943742886,0.7558719691\O,-0.4174797351,2.8567587
 017,-1.2652390739\N,-0.3519485258,0.097269584,-1.9246530187\O,0.686005
 8314,-0.0907739455,-2.5258121096\O,-1.4520849864,0.1223075669,-2.44198
 9986\Br,-0.3370371859,-2.2315025878,0.2722460928\Br,-0.2618612337,0.60
 41615455,2.7532181679\\Version=EM64L-G09RevD.01\State=1-A\HF=-6087.147
 2819\RMSD=6.971e-09\RMSF=1.325e-04\ZeroPoint=0.0491204\Thermal=0.06667
 4\Dipole=0.007626,-0.3995955,0.3796297\DipoleDeriv=0.9903424,-0.013886
 9,-0.0849371,0.0022582,1.0901847,0.1409389,-0.0627995,0.2316357,0.9910
 298,2.3605532,-0.0676632,0.0423499,0.0277548,1.480717,-0.8677373,0.084
 8132,-0.8643869,1.0516208,-1.6770091,-0.316287,0.2765102,-0.4697708,-0
 .8397631,0.4544219,0.2595591,0.4040413,-0.6054108,-1.8423902,0.4564133
 ,-0.3312797,0.3886072,-0.8476339,0.3986442,-0.3544737,0.4312679,-0.655
 0243,0.5223548,0.3552324,0.4748762,0.2400752,3.1240292,-0.0197065,0.44
 67897,-0.2729336,2.1181919,2.3972803,0.0289096,-0.1457484,-0.0925504,2
 .0384404,-0.4791917,-0.2301744,-0.5161254,0.5567346,-1.9142664,-0.4653
 913,0.2669599,-0.3967719,-1.0341751,0.2490557,0.2904776,0.279228,-0.42
 34329,-1.6286501,0.456593,-0.035774,0.5990382,-1.1824775,0.2034082,0.0
 004893,0.1929392,-0.3598516,-0.3840234,-0.3986562,-0.2692937,-0.269115
 6,-2.1782765,-0.3875853,-0.2089944,-0.4204307,-0.9807456,-0.3106371,-0
 .0227146,-0.1766631,0.0027545,-1.727742,0.4307258,-0.2147186,0.8031646
 ,-1.2118214,2.199908,-0.1409686,0.0615513,-0.1460581,0.543317,0.441779
 6,0.0193872,0.3571393,3.059821,-1.0924826,0.1952952,0.6111764,0.160707
 5,-0.3691928,-0.3345012,0.4342707,-0.2908448,-1.9495853,-1.1841836,-0.
 0540915,-0.7127797,-0.0182943,-0.3246713,-0.201571,-0.4529624,-0.20376
 4,-1.843351,-0.1995257,-0.0231413,0.0174398,-0.0473517,-1.5671687,0.11
 50318,0.0042678,-0.0093898,-0.2090085,-0.2372706,0.0103572,0.005612,0.
 0187172,-0.2055874,-0.143713,-0.0159314,-0.1215409,-1.5391665\Polar=20
 6.5011431,2.0673045,239.3109225,2.8237371,-7.0950467,230.1683823\PG=C0
 1 [X(Br2N4O8Pt1)]\NImag=1\\0.23348455,-0.00096173,0.26772419,0.0041782
 1,-0.02190815,0.27817253,-0.07123036,0.00129623,0.00842782,0.58383804,
 -0.00566325,-0.04717961,-0.01146927,-0.02067200,0.60025655,0.00415942,
 -0.01332735,-0.05123547,0.02679760,-0.36401552,0.43457612,-0.00398112,
 -0.01870954,0.01398558,-0.23685574,-0.16287331,0.12292410,0.19984292,-
 0.00014067,-0.00011560,0.01034173,-0.15571163,-0.28971968,0.18798502,0
 .16111415,0.37442192,0.00151409,0.01107110,0.00753683,0.11958008,0.191
 61182,-0.19456734,-0.12364410,-0.27659566,0.23816290,0.00146711,0.0182
 9882,-0.01594420,-0.28067874,0.17785302,-0.14770269,0.05437846,0.00012
 049,0.00066523,0.24002381,0.00211113,0.00124172,0.01026257,0.17325249,
 -0.27341097,0.18458470,0.01685584,-0.08394880,0.07917853,-0.19109648,0
 .35713404,-0.00130604,0.01096920,0.00512979,-0.14431185,0.18479204,-0.
 19835693,-0.01232296,0.08011087,-0.04560362,0.15853762,-0.27161280,0.2
 4047095,-0.04317436,0.00033552,0.00640300,-0.00121351,0.00875689,-0.00
 250223,-0.00459041,-0.00026030,0.00101582,-0.00126430,-0.00127983,0.00
 088957,0.23136495,0.00244924,-0.06127867,0.00363081,0.02517341,-0.0023
 6497,-0.00076608,-0.00693491,-0.00600000,0.00253606,-0.00776157,0.0017
 1695,-0.00122097,0.06954665,0.56143671,0.00664926,0.01158826,-0.031827
 19,-0.00349399,0.00019927,0.00071718,0.00038446,-0.00006510,-0.0018827
 1,0.00048878,0.00049899,-0.00006240,0.21347636,0.05519394,0.85142914,-
 0.07055657,0.00162997,-0.00802527,0.00851858,0.00401618,0.00070536,0.0
 0678936,0.00182193,-0.00151904,0.00674207,-0.00264620,0.00162253,-0.00
 472892,-0.02310732,0.00499490,0.58401155,0.00876940,-0.03975290,-0.003
 49030,-0.00314930,0.01877359,0.00280118,0.00192652,-0.00253280,-0.0015
 8602,-0.00436681,-0.00152511,-0.00217611,-0.00870456,0.00174754,-0.006
 81510,0.03257067,0.81508955,-0.00348253,-0.00427537,-0.05626755,0.0007
 8324,0.00277363,0.02207456,-0.00430117,-0.00280567,-0.00284172,0.00175
 501,-0.00145003,-0.00318975,0.00184530,0.00115170,0.00233792,-0.051205
 91,-0.21788379,0.22082745,0.00074904,-0.02204633,0.01023605,0.00646445
 ,0.00473213,-0.00075967,-0.00952611,-0.00504626,0.00283881,-0.01293022
 ,0.00369687,-0.00388538,0.00007810,0.00785200,-0.00068217,-0.30411870,
 -0.21894371,0.09393328,0.26364660,-0.00117791,-0.00309041,0.00558207,0
 .00209591,-0.00107294,-0.00077524,-0.00346217,-0.00127631,0.00118686,-
 0.00395943,0.00186357,-0.00111121,0.00182837,0.00085568,0.00248785,-0.
 21316100,-0.35320247,0.11773605,0.24395090,0.48501305,0.00160373,0.007
 03704,0.01062605,-0.00143957,-0.00172961,-0.00400324,0.00256377,0.0014
 9639,0.00004054,0.00236090,-0.00048402,0.00153834,-0.00036892,-0.00108
 459,-0.00037982,0.09226668,0.11826401,-0.09388452,-0.10142837,-0.17042
 457,0.08145678,-0.00219756,0.02251549,-0.00487388,0.00648158,-0.003818
 17,0.00113770,-0.00982053,-0.00395014,0.00281637,-0.00900089,0.0035484
 7,-0.00269724,-0.00281224,0.00633400,0.00061266,-0.21352963,0.18858246
 ,-0.04336341,0.05221868,-0.03098122,0.00670464,0.17754578,-0.00035660,
 -0.00818410,0.00603231,-0.00282737,-0.00088364,-0.00139902,0.00597570,
 0.00327316,-0.00164958,0.00619794,-0.00180473,0.00204126,0.00022942,-0
 .00618479,0.00618633,0.18041875,-0.43379082,0.10469483,-0.01079304,-0.
 13060162,0.04818015,-0.17438190,0.57116433,0.00022058,0.00459047,0.012
 94578,-0.00031369,-0.00102020,-0.00418082,0.00012812,0.00018038,0.0009
 3347,-0.00090994,0.00049690,0.00048451,-0.00115964,0.00147341,-0.00373
 061,-0.04285344,0.10790591,-0.07708197,0.00055932,0.04863624,0.0025775
 7,0.04058842,-0.16071637,0.06505247,0.00976744,-0.00350394,-0.00672674
 ,-0.00201025,-0.00200899,0.00154716,0.00117547,0.00223106,-0.00030565,
 0.00046871,0.00055458,-0.00057039,-0.10058733,-0.10125567,-0.11767674,
 0.00212379,-0.00015910,0.00044356,-0.00036474,0.00013932,-0.00018299,-
 0.00080937,0.00098103,0.00013462,0.08491473,-0.00868868,-0.00719881,-0
 .01853294,-0.00918793,-0.00061953,0.00154510,0.00407893,0.00338355,-0.
 00151144,0.00312754,-0.00027030,-0.00012052,-0.10332027,-0.31827668,-0
 .22754170,0.00792603,-0.00150532,-0.00011912,-0.00282022,0.00021120,0.
 00018300,-0.00357816,0.00266772,-0.00009126,0.11531783,0.29249831,-0.0
 0478762,-0.00359494,-0.00091274,-0.00219497,-0.00090251,0.00119973,0.0
 0142260,0.00161953,-0.00035705,0.00056632,0.00002755,-0.00022658,-0.11
 595857,-0.21747592,-0.34308652,0.00123175,0.00054859,-0.00052732,-0.00
 042362,-0.00027871,0.00006346,-0.00097148,-0.00027429,0.00105436,0.167
 96504,0.25997639,0.47151398,0.01165581,0.00077194,-0.00402563,-0.00057
 089,-0.00129596,0.00041383,0.00032780,0.00070994,-0.00057546,0.0007296
 6,0.00016832,-0.00004574,-0.07944537,0.03007968,-0.10428951,-0.0023214
 7,0.00551053,-0.00178367,0.00036061,-0.00198737,0.00044061,-0.00160428
 ,-0.00506852,0.00363939,0.00566894,-0.00252843,-0.04815408,0.06645108,
 0.00434483,-0.00655515,0.02219529,-0.00717304,-0.00060535,0.00092148,0
 .00294284,0.00194438,-0.00102917,0.00254738,-0.00007965,0.00011513,0.0
 3276250,-0.18119637,0.17241368,0.00733029,-0.00118312,-0.00011150,-0.0
 0250412,0.00032291,0.00021329,-0.00415693,0.00252731,-0.00025362,-0.00
 925367,0.04443244,-0.04248568,-0.02676005,0.15521076,-0.00559858,0.003
 48455,-0.01011115,0.00467704,0.00161794,-0.00173218,-0.00141816,-0.001
 81790,0.00177023,-0.00108215,-0.00071116,0.00040911,-0.10263454,0.1607
 5612,-0.47955513,-0.00476372,0.00415107,-0.00132346,0.00094984,-0.0015
 0513,0.00017881,0.00202043,-0.00358764,0.00176022,-0.04603837,-0.01958
 897,-0.12757807,0.15392199,-0.15103119,0.61551099,-0.02709013,-0.00193
 021,-0.00211289,-0.00175251,0.00605560,-0.01019947,0.00004369,-0.00199
 517,0.00710317,-0.00021694,-0.00168943,0.00067359,0.00075218,-0.002812
 21,0.00348264,-0.00106150,-0.00341258,0.00706236,-0.00093635,-0.000184
 86,0.00011344,-0.00091739,0.00262352,-0.00357488,0.00016949,0.00032423
 ,-0.00118098,-0.00208317,0.00010661,-0.00333231,0.92112788,-0.00132734
 ,-0.04601706,0.00198271,-0.00425484,-0.00081922,0.00049054,0.00161704,
 0.00056790,-0.00107765,0.00149646,-0.00018781,0.00021116,-0.00124646,-
 0.00934660,-0.00945635,0.00374839,0.00060284,-0.00080457,-0.00111908,-
 0.00065779,-0.00008146,-0.00112627,-0.00001917,0.00047382,0.00042480,0
 .00121775,0.00197701,0.00038985,-0.00218725,-0.00171673,-0.07523104,0.
 17474391,0.00132113,0.00515262,-0.07063784,-0.02276639,-0.00408386,-0.
 00041634,0.00750018,0.00325896,-0.00516731,0.00752701,-0.00092155,0.00
 190364,-0.00106822,-0.02599351,0.00446292,0.02281012,-0.00384113,-0.00
 416259,-0.00833127,-0.00202308,0.00205371,-0.00787602,0.00441920,-0.00
 156704,0.00139077,0.00882377,0.00040990,-0.00110857,0.00798734,-0.0081
 2106,-0.01405238,0.05975743,0.55189377,-0.00544215,0.00260786,0.004884
 59,-0.00524279,-0.00637523,0.00244174,0.00122635,0.00154669,-0.0077756
 5,0.00142254,0.00136192,0.00001334,-0.00009585,-0.00346065,0.00116284,
 0.00186345,0.00129853,-0.00104439,-0.00000018,0.00000360,-0.00016164,0
 .00006295,-0.00085636,0.00113017,-0.00009284,0.00105127,-0.00015637,0.
 00056525,0.00169474,-0.00169492,-0.42743787,0.06767801,0.21327419,0.57
 642947,0.00485972,0.01123873,-0.00388080,0.00063402,-0.00108142,0.0014
 0143,-0.00148645,-0.00077810,-0.00218122,-0.00090592,0.00076630,-0.000
 93193,-0.00030155,0.00262898,0.00063161,-0.00154525,0.00026211,0.00004
 201,0.00052358,0.00006738,0.00002101,0.00063218,-0.00030050,0.00001121
 ,0.00000517,-0.00061759,-0.00017202,0.00015570,-0.00091498,0.00087171,
 0.06803154,-0.06650689,-0.04972679,-0.08478921,0.03796094,0.02125326,-
 0.00615761,-0.00711620,0.00743647,0.00059785,-0.00132172,-0.00496001,-
 0.00219275,0.00025872,-0.00359039,0.00045852,-0.00108995,0.00033855,0.
 00932237,-0.00214829,-0.00709453,0.00047098,0.00011211,0.00273155,0.00
 062424,-0.00032774,0.00254367,-0.00102324,0.00022142,-0.00036791,-0.00
 330917,0.00023937,0.00006286,-0.00410390,0.00395415,0.22421462,-0.0518
 2553,-0.26000180,-0.23737553,0.05366865,0.23038814,-0.00899973,0.00066
 408,-0.00508639,0.00201081,-0.00229968,0.00157832,-0.00017594,0.000698
 02,-0.00227598,-0.00033064,0.00070755,0.00002668,-0.00099776,0.0051298
 9,-0.00367070,-0.00514482,0.00378991,0.00138884,0.00268105,0.00045162,
 -0.00102899,0.00268436,-0.00302114,0.00258407,0.00000818,-0.00126117,0
 .00107617,0.00147737,-0.00155559,0.00407479,-0.46515015,0.00891381,-0.
 19810364,-0.14386329,0.01523892,-0.00378783,0.61485533,-0.00157083,0.0
 1248099,-0.00276528,0.00129394,0.00061072,-0.00053457,-0.00074157,-0.0
 0036245,0.00063204,-0.00050123,-0.00007917,0.00007888,0.00098802,0.000
 46653,0.00333934,-0.00028080,-0.00162493,0.00046733,0.00055326,0.00077
 850,-0.00018982,0.00013878,0.00095465,-0.00128248,-0.00028360,-0.00018
 650,-0.00107424,-0.00120028,-0.00115300,-0.00154023,0.00969139,-0.0543
 8598,-0.00630204,0.01737907,0.01867948,0.00447557,-0.02590189,0.024798
 68,-0.02366405,-0.00215574,-0.00756149,0.00666313,0.00050676,-0.000461
 91,-0.00247009,-0.00075538,0.00090999,-0.00255821,0.00049817,-0.000348
 39,-0.00026754,0.00909651,-0.00234339,-0.00721414,0.00041270,-0.002309
 79,0.00379022,0.00103019,-0.00082215,0.00359643,-0.00194873,0.00099194
 ,-0.00030950,-0.00321102,0.00045950,0.00111466,-0.00360894,0.00445398,
 -0.21047473,-0.00657561,-0.22528920,0.02030069,0.00214452,0.04915585,0
 .20995977,0.00575440,0.19450592,-0.01025377,-0.00152029,-0.00042826,-0
 .00407927,0.00104249,-0.00239473,0.00048538,-0.00079221,0.00083395,-0.
 00147747,-0.00441657,0.00058852,0.00727933,-0.00017316,-0.00048497,-0.
 00447007,-0.00223923,0.00138925,-0.00002495,0.00523621,-0.00026653,0.0
 0072333,0.00124557,-0.00049340,-0.00135297,0.00029843,0.00017043,-0.00
 134007,-0.00058939,0.00071348,-0.00183723,0.00006516,0.00003216,0.0008
 8143,-0.00067945,0.00010599,0.00089615,0.00025572,-0.00012858,0.014382
 87,-0.00252894,-0.06053061,0.00685668,-0.00116833,-0.00106592,0.000278
 51,-0.00036889,0.00073342,-0.00027082,-0.00128437,-0.00104189,0.000177
 28,0.00240085,0.02082345,-0.00722820,0.00151796,-0.00007376,-0.0001048
 3,0.00153674,0.00046109,-0.00088580,0.00032050,0.00060442,-0.00032642,
 -0.00348983,-0.01557332,-0.00372797,0.00054127,-0.01156257,0.00950684,
 0.00016682,-0.00442437,0.00268779,0.00034610,0.00021846,0.00012959,-0.
 00061558,0.00058085,0.00012527,0.00171227,0.07293748,-0.00027567,0.003
 63543,-0.01560407,-0.00052965,0.00131339,-0.00061436,0.00002052,-0.000
 46158,0.00029507,-0.00120063,-0.00096257,0.00009626,-0.00034493,0.0012
 6707,0.00601916,0.00052288,0.00092598,-0.00032057,0.00062320,-0.001586
 92,0.00095419,-0.00009336,-0.00034358,0.00012126,0.00052551,0.00152667
 ,-0.00034301,0.00022467,-0.00146257,0.00009245,0.00029664,0.00375172,-
 0.00590079,-0.00127103,0.00097887,0.00184517,0.00118337,0.00031937,0.0
 0162603,0.00012866,-0.00524603,0.01302500,-0.01419819,0.00055213,-0.00
 089200,-0.00367940,0.00255029,0.00185358,0.00068043,-0.00034592,-0.000
 27163,0.00066682,-0.00112865,0.00278775,-0.00056449,-0.00105938,-0.000
 95381,-0.00411712,-0.00147272,-0.00341976,0.00170273,0.00120802,-0.001
 17673,0.00097520,-0.00036700,0.00032030,0.00092075,-0.00073941,0.00139
 537,0.00012872,0.00026360,0.00020519,0.00639001,-0.00002847,-0.0005490
 6,-0.00027648,-0.00037299,-0.00151077,0.00004908,0.00018002,0.00166194
 ,0.00018731,0.00091343,0.00018981,0.01113464,-0.00011837,-0.01278271,-
 0.00483743,0.00039843,-0.00081761,0.00080981,0.00006583,0.00040939,-0.
 00031486,0.00023416,-0.00037415,-0.00132226,-0.00173525,-0.00502779,-0
 .00143282,-0.00023961,-0.00128440,0.00068936,0.00042728,0.00032817,-0.
 00051501,-0.00007909,0.00057780,-0.00007800,0.00030102,-0.00016291,0.0
 0583721,0.00051339,0.00099965,0.00111071,0.00025579,0.00741976,0.00080
 484,0.00051367,-0.00162290,-0.00113556,-0.00093875,-0.00155839,-0.0013
 1309,0.00055445,-0.00208672,-0.00365525,-0.00015295,0.01598279,-0.0017
 8518,-0.00610952,-0.06313726,0.00068473,-0.00019174,-0.00167727,0.0001
 8717,-0.00029883,0.00051199,0.00108733,0.00013619,-0.00115499,0.000336
 01,0.00211310,0.00004975,-0.00147817,0.00031205,-0.00344280,-0.0001517
 8,0.00042135,-0.00007199,-0.00014492,-0.00061162,0.00041743,0.00017163
 ,0.00197121,-0.00190901,0.00016466,0.00024036,0.00029112,0.00198119,0.
 00289351,0.02054003,0.00627196,-0.00287827,-0.01416924,-0.00791848,-0.
 00137826,-0.01296688,0.00023404,-0.00197188,-0.00129180,0.00035981,0.0
 0535235,0.07801092\\0.00013293,-0.00023398,0.00014131,0.00003577,0.000
 22502,-0.00005773,-0.00000456,0.00000604,-0.00004764,0.00013833,-0.000
 01090,0.00007043,-0.00017776,0.00008701,0.00001048,-0.00016885,0.00007
 946,-0.00020122,0.00005397,0.00022176,-0.00006930,0.00002910,-0.000189
 38,0.00005889,0.00006503,0.00003867,-0.00005886,0.00006584,-0.00009392
 ,-0.00003066,-0.00012144,0.00015970,-0.00018577,0.00034447,-0.00009566
 ,0.00005471,-0.00018441,-0.00001080,0.00008660,-0.00003719,0.00006221,
 0.00019358,-0.00017124,-0.00024524,0.00003519\\\@


 REVOLUTIONS HAVE NEVER LIGHTENED THE BURDEN OF TYRANNY:
 THEY HAVE MERELY SHIFTED IT TO OTHER SHOULDERS.
                                   -- G. B. SHAW (1903)
 Job cpu time:       0 days  0 hours 37 minutes  2.2 seconds.
 File lengths (MBytes):  RWF=    226 Int=      0 D2E=      0 Chk=     10 Scr=      1
 Normal termination of Gaussian 09 at Wed Aug 18 18:00:59 2021.
