 Entering Gaussian System, Link 0=g09
 Input=estrutura56_D2O.com
 Output=estrutura56_D2O.log
 Initial command:
 /home/scr/programs/g09/l1.exe "/home/scr/diego/Gau-21304.inp" -scrdir="/home/scr/diego/"
 Entering Link 1 = /home/scr/programs/g09/l1.exe PID=     21306.
  
 Copyright (c) 1988,1990,1992,1993,1995,1998,2003,2009,2013,
            Gaussian, Inc.  All Rights Reserved.
  
 This is part of the Gaussian(R) 09 program.  It is based on
 the Gaussian(R) 03 system (copyright 2003, Gaussian, Inc.),
 the Gaussian(R) 98 system (copyright 1998, Gaussian, Inc.),
 the Gaussian(R) 94 system (copyright 1995, Gaussian, Inc.),
 the Gaussian 92(TM) system (copyright 1992, Gaussian, Inc.),
 the Gaussian 90(TM) system (copyright 1990, Gaussian, Inc.),
 the Gaussian 88(TM) system (copyright 1988, Gaussian, Inc.),
 the Gaussian 86(TM) system (copyright 1986, Carnegie Mellon
 University), and the Gaussian 82(TM) system (copyright 1983,
 Carnegie Mellon University). Gaussian is a federally registered
 trademark of Gaussian, Inc.
  
 This software contains proprietary and confidential information,
 including trade secrets, belonging to Gaussian, Inc.
  
 This software is provided under written license and may be
 used, copied, transmitted, or stored only in accord with that
 written license.
  
 The following legend is applicable only to US Government
 contracts under FAR:
  
                    RESTRICTED RIGHTS LEGEND
  
 Use, reproduction and disclosure by the US Government is
 subject to restrictions as set forth in subparagraphs (a)
 and (c) of the Commercial Computer Software - Restricted
 Rights clause in FAR 52.227-19.
  
 Gaussian, Inc.
 340 Quinnipiac St., Bldg. 40, Wallingford CT 06492
  
  
 ---------------------------------------------------------------
 Warning -- This program may not be used in any manner that
 competes with the business of Gaussian, Inc. or will provide
 assistance to any competitor of Gaussian, Inc.  The licensee
 of this program is prohibited from giving any competitor of
 Gaussian, Inc. access to this program.  By using this program,
 the user acknowledges that Gaussian, Inc. is engaged in the
 business of creating and licensing software in the field of
 computational chemistry and represents and warrants to the
 licensee that it is not a competitor of Gaussian, Inc. and that
 it will not use this program in any manner prohibited above.
 ---------------------------------------------------------------
  

 Cite this work as:
 Gaussian 09, Revision D.01,
 M. J. Frisch, G. W. Trucks, H. B. Schlegel, G. E. Scuseria, 
 M. A. Robb, J. R. Cheeseman, G. Scalmani, V. Barone, B. Mennucci, 
 G. A. Petersson, H. Nakatsuji, M. Caricato, X. Li, H. P. Hratchian, 
 A. F. Izmaylov, J. Bloino, G. Zheng, J. L. Sonnenberg, M. Hada, 
 M. Ehara, K. Toyota, R. Fukuda, J. Hasegawa, M. Ishida, T. Nakajima, 
 Y. Honda, O. Kitao, H. Nakai, T. Vreven, J. A. Montgomery, Jr., 
 J. E. Peralta, F. Ogliaro, M. Bearpark, J. J. Heyd, E. Brothers, 
 K. N. Kudin, V. N. Staroverov, T. Keith, R. Kobayashi, J. Normand, 
 K. Raghavachari, A. Rendell, J. C. Burant, S. S. Iyengar, J. Tomasi, 
 M. Cossi, N. Rega, J. M. Millam, M. Klene, J. E. Knox, J. B. Cross, 
 V. Bakken, C. Adamo, J. Jaramillo, R. Gomperts, R. E. Stratmann, 
 O. Yazyev, A. J. Austin, R. Cammi, C. Pomelli, J. W. Ochterski, 
 R. L. Martin, K. Morokuma, V. G. Zakrzewski, G. A. Voth, 
 P. Salvador, J. J. Dannenberg, S. Dapprich, A. D. Daniels, 
 O. Farkas, J. B. Foresman, J. V. Ortiz, J. Cioslowski, 
 and D. J. Fox, Gaussian, Inc., Wallingford CT, 2013.
 
 ******************************************
 Gaussian 09:  EM64L-G09RevD.01 24-Apr-2013
                18-Aug-2021 
 ******************************************
 %mem=15Gb
 %nproc=8
 Will use up to    8 processors via shared memory.
 ------------------------------------------------------------
 #b3lyp/gen pseudo=read opt freq=noraman scrf=(solvent=water)
 ------------------------------------------------------------
 1/14=-1,18=20,19=15,26=3,38=1/1,3;
 2/9=110,12=2,17=6,18=5,40=1/2;
 3/5=7,11=2,16=1,17=8,25=1,30=1,70=2201,71=1,72=1,74=-5/1,2,3;
 4//1;
 5/5=2,38=5,53=1/2;
 6/7=2,8=2,9=2,10=2,28=1/1;
 7//1,2,3,16;
 1/14=-1,18=20,19=15,26=3/3(2);
 2/9=110/2;
 99//99;
 2/9=110/2;
 3/5=7,6=1,11=2,16=1,17=8,25=1,30=1,70=2205,71=1,72=1,74=-5,82=7/1,2,3;
 4/5=5,16=3,69=1/1;
 5/5=2,38=5,53=1/2;
 7//1,2,3,16;
 1/14=-1,18=20,19=15,26=3/3(-5);
 2/9=110/2;
 6/7=2,8=2,9=2,10=2,19=2,28=1/1;
 99/9=1/99;
 ------------
 Estrutura 56
 ------------
 Symbolic Z-matrix:
 Charge = -2 Multiplicity = 1
 Pt                   -0.31955   0.33835   0. 
 N                    -0.31955  -1.65165   0. 
 O                     0.95213  -2.10499   0.1641 
 O                    -0.81328  -2.10499  -1.18335 
 N                    -0.31955   0.33835  -1.99 
 O                     0.64815  -0.50287  -2.44333 
 O                    -1.53191  -0.0791   -2.44333 
 Cl                   -2.59955   0.33835   0. 
 Cl                   -0.31955   2.61835   0. 
 Cl                   -0.31955   0.33835   1.99 
 N                     1.67045   0.33835   0. 
 O                     2.12378   1.35457  -0.7819 
 O                     2.12378   0.50738   1.27103 
 

 GradGradGradGradGradGradGradGradGradGradGradGradGradGradGradGradGradGrad
 Berny optimization.
 Initialization pass.
                           ----------------------------
                           !    Initial Parameters    !
                           ! (Angstroms and Degrees)  !
 --------------------------                            --------------------------
 ! Name  Definition              Value          Derivative Info.                !
 --------------------------------------------------------------------------------
 ! R1    R(1,2)                  1.99           estimate D2E/DX2                !
 ! R2    R(1,5)                  1.99           estimate D2E/DX2                !
 ! R3    R(1,8)                  2.28           estimate D2E/DX2                !
 ! R4    R(1,9)                  2.28           estimate D2E/DX2                !
 ! R5    R(1,10)                 1.99           estimate D2E/DX2                !
 ! R6    R(1,11)                 1.99           estimate D2E/DX2                !
 ! R7    R(2,3)                  1.36           estimate D2E/DX2                !
 ! R8    R(2,4)                  1.36           estimate D2E/DX2                !
 ! R9    R(5,6)                  1.36           estimate D2E/DX2                !
 ! R10   R(5,7)                  1.36           estimate D2E/DX2                !
 ! R11   R(11,12)                1.36           estimate D2E/DX2                !
 ! R12   R(11,13)                1.36           estimate D2E/DX2                !
 ! A1    A(2,1,5)               90.0            estimate D2E/DX2                !
 ! A2    A(2,1,8)               90.0            estimate D2E/DX2                !
 ! A3    A(2,1,10)              90.0            estimate D2E/DX2                !
 ! A4    A(2,1,11)              90.0            estimate D2E/DX2                !
 ! A5    A(5,1,8)               90.0            estimate D2E/DX2                !
 ! A6    A(5,1,9)               90.0            estimate D2E/DX2                !
 ! A7    A(5,1,11)              90.0            estimate D2E/DX2                !
 ! A8    A(8,1,9)               90.0            estimate D2E/DX2                !
 ! A9    A(8,1,10)              90.0            estimate D2E/DX2                !
 ! A10   A(9,1,10)              90.0            estimate D2E/DX2                !
 ! A11   A(9,1,11)              90.0            estimate D2E/DX2                !
 ! A12   A(10,1,11)             90.0            estimate D2E/DX2                !
 ! A13   A(1,2,3)              109.4712         estimate D2E/DX2                !
 ! A14   A(1,2,4)              109.4712         estimate D2E/DX2                !
 ! A15   A(3,2,4)              109.4713         estimate D2E/DX2                !
 ! A16   A(1,5,6)              109.4712         estimate D2E/DX2                !
 ! A17   A(1,5,7)              109.4712         estimate D2E/DX2                !
 ! A18   A(6,5,7)              109.4713         estimate D2E/DX2                !
 ! A19   A(1,11,12)            109.4712         estimate D2E/DX2                !
 ! A20   A(1,11,13)            109.4712         estimate D2E/DX2                !
 ! A21   A(12,11,13)           109.4713         estimate D2E/DX2                !
 ! A22   L(2,1,9,5,-1)         180.0            estimate D2E/DX2                !
 ! A23   L(5,1,10,2,-1)        180.0            estimate D2E/DX2                !
 ! A24   L(8,1,11,2,-1)        180.0            estimate D2E/DX2                !
 ! A25   L(2,1,9,5,-2)         180.0            estimate D2E/DX2                !
 ! A26   L(5,1,10,2,-2)        180.0            estimate D2E/DX2                !
 ! A27   L(8,1,11,2,-2)        180.0            estimate D2E/DX2                !
 ! D1    D(5,1,2,3)             97.3528         estimate D2E/DX2                !
 ! D2    D(5,1,2,4)            -22.6472         estimate D2E/DX2                !
 ! D3    D(8,1,2,3)           -172.6472         estimate D2E/DX2                !
 ! D4    D(8,1,2,4)             67.3528         estimate D2E/DX2                !
 ! D5    D(10,1,2,3)           -82.6472         estimate D2E/DX2                !
 ! D6    D(10,1,2,4)           157.3528         estimate D2E/DX2                !
 ! D7    D(11,1,2,3)             7.3528         estimate D2E/DX2                !
 ! D8    D(11,1,2,4)          -112.6472         estimate D2E/DX2                !
 ! D9    D(2,1,5,6)            -48.9998         estimate D2E/DX2                !
 ! D10   D(2,1,5,7)             71.0002         estimate D2E/DX2                !
 ! D11   D(8,1,5,6)           -138.9998         estimate D2E/DX2                !
 ! D12   D(8,1,5,7)            -18.9998         estimate D2E/DX2                !
 ! D13   D(9,1,5,6)            131.0002         estimate D2E/DX2                !
 ! D14   D(9,1,5,7)           -108.9998         estimate D2E/DX2                !
 ! D15   D(11,1,5,6)            41.0002         estimate D2E/DX2                !
 ! D16   D(11,1,5,7)           161.0002         estimate D2E/DX2                !
 ! D17   D(2,1,11,12)          142.4248         estimate D2E/DX2                !
 ! D18   D(2,1,11,13)          -97.5752         estimate D2E/DX2                !
 ! D19   D(5,1,11,12)           52.4248         estimate D2E/DX2                !
 ! D20   D(5,1,11,13)          172.4248         estimate D2E/DX2                !
 ! D21   D(9,1,11,12)          -37.5752         estimate D2E/DX2                !
 ! D22   D(9,1,11,13)           82.4248         estimate D2E/DX2                !
 ! D23   D(10,1,11,12)        -127.5752         estimate D2E/DX2                !
 ! D24   D(10,1,11,13)          -7.5752         estimate D2E/DX2                !
 --------------------------------------------------------------------------------
 Trust Radius=3.00D-01 FncErr=1.00D-07 GrdErr=1.00D-06
 Number of steps in this run=     73 maximum allowed number of steps=    100.
 GradGradGradGradGradGradGradGradGradGradGradGradGradGradGradGradGradGrad

                          Input orientation:                          
 ---------------------------------------------------------------------
 Center     Atomic      Atomic             Coordinates (Angstroms)
 Number     Number       Type             X           Y           Z
 ---------------------------------------------------------------------
      1         78           0       -0.319549    0.338346    0.000000
      2          7           0       -0.319549   -1.651654    0.000000
      3          8           0        0.952128   -2.104987    0.164097
      4          8           0       -0.813275   -2.104987   -1.183353
      5          7           0       -0.319549    0.338346   -1.990000
      6          8           0        0.648153   -0.502869   -2.443333
      7          8           0       -1.531913   -0.079100   -2.443333
      8         17           0       -2.599549    0.338346    0.000000
      9         17           0       -0.319549    2.618346    0.000000
     10         17           0       -0.319549    0.338346    1.990000
     11          7           0        1.670451    0.338346    0.000000
     12          8           0        2.123784    1.354574   -0.781901
     13          8           0        2.123784    0.507377    1.271030
 ---------------------------------------------------------------------
                    Distance matrix (angstroms):
                    1          2          3          4          5
     1  Pt   0.000000
     2  N    1.990000   0.000000
     3  O    2.759341   1.360000   0.000000
     4  O    2.759341   1.360000   2.220871   0.000000
     5  N    1.990000   2.814285   3.496737   2.619985   0.000000
     6  O    2.759341   2.868105   3.075366   2.508008   1.360000
     7  O    2.759341   3.148433   4.131993   2.491628   1.360000
     8  Cl   2.280000   3.026301   4.314071   3.249765   3.026301
     9  Cl   2.280000   4.270000   4.894279   4.894279   3.026301
    10  Cl   1.990000   2.814285   3.304687   4.035320   3.980000
    11  N    1.990000   2.814285   2.552017   3.679551   2.814285
    12  O    2.759341   3.952044   3.773096   4.555880   2.908969
    13  O    2.759341   3.499544   3.069614   4.634087   4.078329
                    6          7          8          9         10
     6  O    0.000000
     7  O    2.220871   0.000000
     8  Cl   4.150311   2.698885   0.000000
     9  Cl   4.080234   3.836133   3.224407   0.000000
    10  Cl   4.615033   4.615033   3.026301   3.026301   0.000000
    11  N    2.778959   4.049602   4.270000   3.026301   2.814285
    12  O    2.896194   4.263790   4.894279   2.859784   3.832236
    13  O    4.122448   5.244480   4.894279   3.470098   2.552521
                   11         12         13
    11  N    0.000000
    12  O    1.360000   0.000000
    13  O    1.360000   2.220871   0.000000
 Stoichiometry    Cl3N3O6Pt(2-)
 Framework group  C1[X(Cl3N3O6Pt)]
 Deg. of freedom    33
 Full point group                 C1      NOp   1
 Largest Abelian subgroup         C1      NOp   1
 Largest concise Abelian subgroup C1      NOp   1
                         Standard orientation:                         
 ---------------------------------------------------------------------
 Center     Atomic      Atomic             Coordinates (Angstroms)
 Number     Number       Type             X           Y           Z
 ---------------------------------------------------------------------
      1         78           0        0.058498   -0.144222   -0.064572
      2          7           0       -1.045645    0.984927   -1.275353
      3          8           0       -0.464770    2.207212   -1.410274
      4          8           0       -2.291123    1.130528   -0.748869
      5          7           0       -1.133695    0.323324    1.458642
      6          8           0       -1.313406    1.670863    1.496618
      7          8           0       -2.336757   -0.290107    1.297572
      8         17           0       -1.257668   -1.943608   -0.542395
      9         17           0        1.323546   -1.437919    1.322656
     10         17           0        1.250690   -0.611767   -1.587785
     11          7           0        1.207256    1.426296    0.352476
     12          8           0        1.564369    1.391154    1.664283
     13          8           0        2.324200    1.389533   -0.422563
 ---------------------------------------------------------------------
 Rotational constants (GHZ):      0.6041659      0.5499615      0.4932471
 General basis read from cards:  (5D, 7F)
 ======================================================================================================
                                       Pseudopotential Parameters
 ======================================================================================================
  Center     Atomic      Valence      Angular      Power
  Number     Number     Electrons     Momentum     of R      Exponent        Coefficient   SO-Coeffient
 ======================================================================================================
    1         78           18
                                      G and up 
                                                     1      728.9394056       -0.16192680    0.00000000
                                                     2      320.6567800    -1320.28738520    0.00000000
                                                     2       52.8680174     -298.31781350    0.00000000
                                                     2       12.0280128      -87.58370650    0.00000000
                                                     2        3.5238913       -8.14932740    0.00000000
                                      S - G
                                                     0      409.4437358        2.73342180    0.00000000
                                                     1      274.5419231       59.70243290    0.00000000
                                                     2      127.5658570      891.45895500    0.00000000
                                                     2       32.9036631      368.44676560    0.00000000
                                                     2        5.0593880      238.02630900    0.00000000
                                                     2        4.1506556     -107.05564540    0.00000000
                                      P - G
                                                     0      466.1728892        1.88785680    0.00000000
                                                     1      120.7888259       76.01386290    0.00000000
                                                     2       36.4118791      343.55111160    0.00000000
                                                     2        5.6985408      119.49117860    0.00000000
                                      D - G
                                                     0      249.5650763        2.93436780    0.00000000
                                                     1      126.6678585       59.33065710    0.00000000
                                                     2       63.1430586      452.44451940    0.00000000
                                                     2       17.9059470      210.47694790    0.00000000
                                                     2        4.2239373       58.62541120    0.00000000
                                      F - G
                                                     0      121.8158799        3.95342530    0.00000000
                                                     1       60.8757030       53.85551820    0.00000000
                                                     2       31.4767147      247.43051330    0.00000000
                                                     2        9.8811751      127.81879760    0.00000000
                                                     2        2.7319874       15.37720460    0.00000000
    2          7
                                   No pseudopotential on this center.
    3          8
                                   No pseudopotential on this center.
    4          8
                                   No pseudopotential on this center.
    5          7
                                   No pseudopotential on this center.
    6          8
                                   No pseudopotential on this center.
    7          8
                                   No pseudopotential on this center.
    8         17
                                   No pseudopotential on this center.
    9         17
                                   No pseudopotential on this center.
   10         17
                                   No pseudopotential on this center.
   11          7
                                   No pseudopotential on this center.
   12          8
                                   No pseudopotential on this center.
   13          8
                                   No pseudopotential on this center.
 ======================================================================================================
 There are   216 symmetry adapted cartesian basis functions of A   symmetry.
 There are   202 symmetry adapted basis functions of A   symmetry.
   202 basis functions,   379 primitive gaussians,   216 cartesian basis functions
    70 alpha electrons       70 beta electrons
       nuclear repulsion energy      1583.2470768894 Hartrees.
 NAtoms=   13 NActive=   13 NUniq=   13 SFac= 1.00D+00 NAtFMM=   60 NAOKFM=F Big=F
 Integral buffers will be    131072 words long.
 Raffenetti 2 integral format.
 Two-electron integral symmetry is turned on.
 ------------------------------------------------------------------------------
 Polarizable Continuum Model (PCM)
 =================================
 Model                : PCM (using non-symmetric T matrix).
 Atomic radii         : UFF (Universal Force Field).
 Polarization charges : Total charges.
 Charge compensation  : None.
 Solution method      : On-the-fly selection.
 Cavity type          : Scaled VdW (van der Waals Surface) (Alpha=1.100).
 Cavity algorithm     : GePol (No added spheres)
                        Default sphere list used, NSphG=   13.
                        Lebedev-Laikov grids with approx.  5.0 points / Ang**2.
                        Smoothing algorithm: Karplus/York (Gamma=1.0000).
                        Polarization charges: spherical gaussians, with
                                              point-specific exponents (IZeta= 3).
                        Self-potential: point-specific (ISelfS= 7).
                        Self-field    : sphere-specific E.n sum rule (ISelfD= 2).
 1st derivatives      : Analytical E(r).r(x)/FMM algorithm (CHGder, D1EAlg=3).
                        Cavity 1st derivative terms included.
 Solvent              : Water, Eps=  78.355300 Eps(inf)=   1.777849
 ------------------------------------------------------------------------------
 Spheres list:
 ISph  on   Nord     Re0    Alpha      Xe            Ye            Ze
    1  Pt      1    1.3770  1.100      0.058498     -0.144222     -0.064572
    2   N      2    1.8300  1.100     -1.045645      0.984927     -1.275353
    3   O      3    1.7500  1.100     -0.464770      2.207212     -1.410274
    4   O      4    1.7500  1.100     -2.291123      1.130528     -0.748869
    5   N      5    1.8300  1.100     -1.133695      0.323324      1.458642
    6   O      6    1.7500  1.100     -1.313406      1.670863      1.496618
    7   O      7    1.7500  1.100     -2.336757     -0.290107      1.297572
    8  Cl      8    1.9735  1.100     -1.257668     -1.943608     -0.542395
    9  Cl      9    1.9735  1.100      1.323546     -1.437919      1.322656
   10  Cl     10    1.9735  1.100      1.250690     -0.611767     -1.587785
   11   N     11    1.8300  1.100      1.207256      1.426296      0.352476
   12   O     12    1.7500  1.100      1.564369      1.391154      1.664283
   13   O     13    1.7500  1.100      2.324200      1.389533     -0.422563
 ------------------------------------------------------------------------------
 One-electron integrals computed using PRISM.
   1 Symmetry operations used in ECPInt.
 ECPInt:  NShTT=    3741 NPrTT=   16128 LenC2=    3553 LenP2D=   11001.
 LDataN:  DoStor=T MaxTD1= 6 Len=  172
 NBasis=   202 RedAO= T EigKep=  2.91D-03  NBF=   202
 NBsUse=   202 1.00D-06 EigRej= -1.00D+00 NBFU=   202
 Defaulting to unpruned grid for atomic number  78.
 ExpMin= 2.90D-02 ExpMax= 1.04D+04 ExpMxC= 1.57D+03 IAcc=3 IRadAn=         5 AccDes= 0.00D+00
 Harris functional with IExCor=  402 and IRadAn=       5 diagonalized for initial guess.
 HarFok:  IExCor=  402 AccDes= 0.00D+00 IRadAn=         5 IDoV= 1 UseB2=F ITyADJ=14
 ICtDFT=  3500011 ScaDFX=  1.000000  1.000000  1.000000  1.000000
 Defaulting to unpruned grid for atomic number  78.
 Defaulting to unpruned grid for atomic number  78.
 Defaulting to unpruned grid for atomic number  78.
 Defaulting to unpruned grid for atomic number  78.
 Defaulting to unpruned grid for atomic number  78.
 Defaulting to unpruned grid for atomic number  78.
 Defaulting to unpruned grid for atomic number  78.
 Defaulting to unpruned grid for atomic number  78.
 FoFCou: FMM=F IPFlag=           0 FMFlag=      100000 FMFlg1=           0
         NFxFlg=           0 DoJE=T BraDBF=F KetDBF=T FulRan=T
         wScrn=  0.000000 ICntrl=     500 IOpCl=  0 I1Cent=   200000004 NGrid=           0
         NMat0=    1 NMatS0=      1 NMatT0=    0 NMatD0=    1 NMtDS0=    0 NMtDT0=    0
 Petite list used in FoFCou.
 Keep R1 ints in memory in canonical form, NReq=215962699.
 Requested convergence on RMS density matrix=1.00D-08 within 128 cycles.
 Requested convergence on MAX density matrix=1.00D-06.
 Requested convergence on             energy=1.00D-06.
 No special actions if energy rises.
 Defaulting to unpruned grid for atomic number  78.
 Defaulting to unpruned grid for atomic number  78.
 Defaulting to unpruned grid for atomic number  78.
 Defaulting to unpruned grid for atomic number  78.
 Defaulting to unpruned grid for atomic number  78.
 Defaulting to unpruned grid for atomic number  78.
 Defaulting to unpruned grid for atomic number  78.
 Defaulting to unpruned grid for atomic number  78.
 Inv3:  Mode=1 IEnd=     6526875.
 Iteration    1 A*A^-1 deviation from unit magnitude is 5.77D-15 for     82.
 Iteration    1 A*A^-1 deviation from orthogonality  is 5.40D-15 for   1092    932.
 Iteration    1 A^-1*A deviation from unit magnitude is 5.77D-15 for    300.
 Iteration    1 A^-1*A deviation from orthogonality  is 2.69D-15 for    850    813.
 EnCoef did   100 forward-backward iterations
 EnCoef did   100 forward-backward iterations
 EnCoef did     2 forward-backward iterations
 EnCoef did     2 forward-backward iterations
 EnCoef did     2 forward-backward iterations
 EnCoef did     4 forward-backward iterations
 Error on total polarization charges =  0.00964
 SCF Done:  E(RB3LYP) =  -2114.30591650     A.U. after   24 cycles
            NFock= 24  Conv=0.58D-08     -V/T= 2.0434

 **********************************************************************

            Population analysis using the SCF density.

 **********************************************************************

 Orbital symmetries:
       Occupied  (A) (A) (A) (A) (A) (A) (A) (A) (A) (A) (A) (A)
                 (A) (A) (A) (A) (A) (A) (A) (A) (A) (A) (A) (A)
                 (A) (A) (A) (A) (A) (A) (A) (A) (A) (A) (A) (A)
                 (A) (A) (A) (A) (A) (A) (A) (A) (A) (A) (A) (A)
                 (A) (A) (A) (A) (A) (A) (A) (A) (A) (A) (A) (A)
                 (A) (A) (A) (A) (A) (A) (A) (A) (A) (A)
       Virtual   (A) (A) (A) (A) (A) (A) (A) (A) (A) (A) (A) (A)
                 (A) (A) (A) (A) (A) (A) (A) (A) (A) (A) (A) (A)
                 (A) (A) (A) (A) (A) (A) (A) (A) (A) (A) (A) (A)
                 (A) (A) (A) (A) (A) (A) (A) (A) (A) (A) (A) (A)
                 (A) (A) (A) (A) (A) (A) (A) (A) (A) (A) (A) (A)
                 (A) (A) (A) (A) (A) (A) (A) (A) (A) (A) (A) (A)
                 (A) (A) (A) (A) (A) (A) (A) (A) (A) (A) (A) (A)
                 (A) (A) (A) (A) (A) (A) (A) (A) (A) (A) (A) (A)
                 (A) (A) (A) (A) (A) (A) (A) (A) (A) (A) (A) (A)
                 (A) (A) (A) (A) (A) (A) (A) (A) (A) (A) (A) (A)
                 (A) (A) (A) (A) (A) (A) (A) (A) (A) (A) (A) (A)
 The electronic state is 1-A.
 Alpha  occ. eigenvalues -- -101.45793-101.45334-101.44931 -19.14822 -19.14538
 Alpha  occ. eigenvalues --  -19.14086 -19.13844 -19.13252 -19.13096 -14.49669
 Alpha  occ. eigenvalues --  -14.49087 -14.47415  -9.41417  -9.41189  -9.40363
 Alpha  occ. eigenvalues --   -7.18268  -7.18008  -7.17265  -7.17207  -7.17195
 Alpha  occ. eigenvalues --   -7.17134  -7.17126  -7.16317  -7.16268  -4.04870
 Alpha  occ. eigenvalues --   -2.27127  -2.26183  -2.26127  -1.09815  -1.08724
 Alpha  occ. eigenvalues --   -1.07663  -0.93395  -0.92861  -0.91834  -0.81554
 Alpha  occ. eigenvalues --   -0.77365  -0.76370  -0.65636  -0.65040  -0.63968
 Alpha  occ. eigenvalues --   -0.51116  -0.50194  -0.49596  -0.48561  -0.47654
 Alpha  occ. eigenvalues --   -0.47486  -0.45784  -0.45015  -0.43066  -0.41946
 Alpha  occ. eigenvalues --   -0.40337  -0.39460  -0.38407  -0.36977  -0.35404
 Alpha  occ. eigenvalues --   -0.29430  -0.29065  -0.27946  -0.27601  -0.27165
 Alpha  occ. eigenvalues --   -0.26819  -0.26648  -0.26405  -0.25820  -0.25652
 Alpha  occ. eigenvalues --   -0.25096  -0.24430  -0.23894  -0.23623  -0.22091
 Alpha virt. eigenvalues --   -0.13332  -0.12321  -0.10670  -0.03004  -0.00590
 Alpha virt. eigenvalues --    0.05822   0.05952   0.06717   0.18421   0.19179
 Alpha virt. eigenvalues --    0.19798   0.20169   0.20738   0.21365   0.21690
 Alpha virt. eigenvalues --    0.31632   0.32560   0.33027   0.44020   0.45767
 Alpha virt. eigenvalues --    0.47629   0.48996   0.54530   0.59713   0.61942
 Alpha virt. eigenvalues --    0.67777   0.70197   0.70917   0.71343   0.72850
 Alpha virt. eigenvalues --    0.74012   0.74787   0.76891   0.77218   0.77519
 Alpha virt. eigenvalues --    0.78420   0.78974   0.80194   0.81068   0.81284
 Alpha virt. eigenvalues --    0.81815   0.82577   0.83794   0.84343   0.85047
 Alpha virt. eigenvalues --    0.88345   0.88806   0.90546   0.92186   0.93696
 Alpha virt. eigenvalues --    0.94148   0.94685   0.97290   0.98018   0.99113
 Alpha virt. eigenvalues --    1.00257   1.02241   1.03309   1.05644   1.07133
 Alpha virt. eigenvalues --    1.08177   1.09965   1.11857   1.13245   1.14138
 Alpha virt. eigenvalues --    1.15330   1.15709   1.17434   1.19390   1.20855
 Alpha virt. eigenvalues --    1.23224   1.24815   1.25707   1.26896   1.28887
 Alpha virt. eigenvalues --    1.31028   1.35143   1.37922   1.41111   1.44764
 Alpha virt. eigenvalues --    1.45850   1.47801   1.52745   1.53581   1.56754
 Alpha virt. eigenvalues --    1.61936   1.89863   1.92081   1.95095   1.98729
 Alpha virt. eigenvalues --    2.02712   2.05552   2.07533   2.14976   2.20957
 Alpha virt. eigenvalues --    2.28537   2.31190   2.34023   2.34488   2.36228
 Alpha virt. eigenvalues --    2.37083   2.65231   2.65705   2.66461   2.67088
 Alpha virt. eigenvalues --    2.67289   2.67884   2.68251   2.69247   2.70344
 Alpha virt. eigenvalues --    2.70555   2.71838   2.72928   2.76327   2.76835
 Alpha virt. eigenvalues --    2.78595   2.96866   2.99171   3.01066   3.01882
 Alpha virt. eigenvalues --    3.02368   3.03171   3.22509   3.24078   3.24383
 Alpha virt. eigenvalues --    3.49252   3.50737   3.53049   3.69353   3.70941
 Alpha virt. eigenvalues --    3.74222   7.32581
          Condensed to atoms (all electrons):
               1          2          3          4          5          6
     1  Pt  17.408117  -0.034887   0.009487   0.001841   0.035021  -0.002275
     2  N   -0.034887   6.796308   0.162885   0.174486  -0.016129  -0.009142
     3  O    0.009487   0.162885   8.216086  -0.092485   0.000183   0.001590
     4  O    0.001841   0.174486  -0.092485   8.180024  -0.022772   0.003379
     5  N    0.035021  -0.016129   0.000183  -0.022772   6.655243   0.169974
     6  O   -0.002275  -0.009142   0.001590   0.003379   0.169974   8.231537
     7  O   -0.013479  -0.002233  -0.000024  -0.001771   0.185205  -0.094531
     8  Cl   0.243329  -0.012782   0.000130  -0.000628   0.002950   0.000119
     9  Cl   0.252413  -0.003275   0.000041   0.000044  -0.004161   0.000124
    10  Cl  -0.043922  -0.046808  -0.001025   0.000752  -0.008393   0.000195
    11  N   -0.032265  -0.016331  -0.018856   0.000058  -0.022072  -0.005472
    12  O   -0.010612   0.000364   0.000211   0.000002  -0.001766  -0.000592
    13  O    0.006021  -0.000023   0.000353  -0.000001   0.000260   0.000128
               7          8          9         10         11         12
     1  Pt  -0.013479   0.243329   0.252413  -0.043922  -0.032265  -0.010612
     2  N   -0.002233  -0.012782  -0.003275  -0.046808  -0.016331   0.000364
     3  O   -0.000024   0.000130   0.000041  -0.001025  -0.018856   0.000211
     4  O   -0.001771  -0.000628   0.000044   0.000752   0.000058   0.000002
     5  N    0.185205   0.002950  -0.004161  -0.008393  -0.022072  -0.001766
     6  O   -0.094531   0.000119   0.000124   0.000195  -0.005472  -0.000592
     7  O    8.216216  -0.026981  -0.000134   0.000159   0.000261   0.000065
     8  Cl  -0.026981  16.976992  -0.014826  -0.023959  -0.003495   0.000049
     9  Cl  -0.000134  -0.014826  16.960645  -0.015935  -0.018131  -0.008906
    10  Cl   0.000159  -0.023959  -0.015935  17.562536  -0.039818   0.000410
    11  N    0.000261  -0.003495  -0.018131  -0.039818   6.761520   0.182364
    12  O    0.000065   0.000049  -0.008906   0.000410   0.182364   8.204390
    13  O    0.000000   0.000043   0.000599  -0.051690   0.175882  -0.091266
              13
     1  Pt   0.006021
     2  N   -0.000023
     3  O    0.000353
     4  O   -0.000001
     5  N    0.000260
     6  O    0.000128
     7  O    0.000000
     8  Cl   0.000043
     9  Cl   0.000599
    10  Cl  -0.051690
    11  N    0.175882
    12  O   -0.091266
    13  O    8.235326
 Mulliken charges:
               1
     1  Pt   0.181211
     2  N    0.007566
     3  O   -0.278576
     4  O   -0.242931
     5  N    0.026456
     6  O   -0.295035
     7  O   -0.262755
     8  Cl  -0.140941
     9  Cl  -0.148498
    10  Cl  -0.332503
    11  N    0.036354
    12  O   -0.274715
    13  O   -0.275633
 Sum of Mulliken charges =  -2.00000
 Mulliken charges with hydrogens summed into heavy atoms:
               1
     1  Pt   0.181211
     2  N    0.007566
     3  O   -0.278576
     4  O   -0.242931
     5  N    0.026456
     6  O   -0.295035
     7  O   -0.262755
     8  Cl  -0.140941
     9  Cl  -0.148498
    10  Cl  -0.332503
    11  N    0.036354
    12  O   -0.274715
    13  O   -0.275633
 Electronic spatial extent (au):  <R**2>=           2762.0106
 Charge=             -2.0000 electrons
 Dipole moment (field-independent basis, Debye):
    X=              1.2043    Y=             -3.2020    Z=             -1.6723  Tot=              3.8079
 Quadrupole moment (field-independent basis, Debye-Ang):
   XX=           -149.2419   YY=           -141.5211   ZZ=           -132.2406
   XY=             -0.5989   XZ=              1.6558   YZ=             -0.9701
 Traceless Quadrupole moment (field-independent basis, Debye-Ang):
   XX=             -8.2407   YY=             -0.5199   ZZ=              8.7606
   XY=             -0.5989   XZ=              1.6558   YZ=             -0.9701
 Octapole moment (field-independent basis, Debye-Ang**2):
  XXX=             15.7809  YYY=            -19.2655  ZZZ=            -12.1591  XYY=              6.9730
  XXY=            -21.5773  XXZ=            -13.0038  XZZ=             -3.1073  YZZ=            -13.7341
  YYZ=              0.6232  XYZ=             -0.2857
 Hexadecapole moment (field-independent basis, Debye-Ang**3):
 XXXX=          -1480.3336 YYYY=          -1229.5635 ZZZZ=           -948.3957 XXXY=            -17.5467
 XXXZ=             14.0012 YYYX=             10.4593 YYYZ=              9.0926 ZZZX=             -1.8201
 ZZZY=            -12.8323 XXYY=           -463.6486 XXZZ=           -411.4044 YYZZ=           -391.1927
 XXYZ=             -0.9035 YYXZ=             -5.1445 ZZXY=             -2.0410
 N-N= 1.583247076889D+03 E-N=-8.187402144756D+03  KE= 2.026314711703D+03
   1 Symmetry operations used in ECPInt.
 ECPInt:  NShTT=    3741 NPrTT=   16128 LenC2=    3553 LenP2D=   11001.
 LDataN:  DoStor=T MaxTD1= 7 Len=  274
 D1PCM: PCM CHGder 1st derivatives, ID1Alg=3 FixD1E=F DoIter=F DoCFld=F I1PDM=0.
 Calling FoFJK, ICntrl=      2127 FMM=F ISym2X=0 I1Cent= 0 IOpClX= 0 NMat=1 NMatS=1 NMatT=0.
 Defaulting to unpruned grid for atomic number  78.
 Defaulting to unpruned grid for atomic number  78.
 Defaulting to unpruned grid for atomic number  78.
 Defaulting to unpruned grid for atomic number  78.
 Defaulting to unpruned grid for atomic number  78.
 Defaulting to unpruned grid for atomic number  78.
 Defaulting to unpruned grid for atomic number  78.
 Defaulting to unpruned grid for atomic number  78.
 ***** Axes restored to original set *****
 -------------------------------------------------------------------
 Center     Atomic                   Forces (Hartrees/Bohr)
 Number     Number              X              Y              Z
 -------------------------------------------------------------------
      1       78          -0.018293888    0.019788372   -0.140847658
      2        7           0.099888905   -0.109792874   -0.145640081
      3        8          -0.094614677    0.020702201    0.023884873
      4        8           0.005094393    0.013426532    0.107496833
      5        7          -0.040844370   -0.162049183   -0.117189716
      6        8          -0.046679636    0.080933161    0.020116706
      7        8           0.086092678    0.065949252    0.009143689
      8       17          -0.047565146    0.005167722    0.013073987
      9       17          -0.000692657    0.044901859   -0.002635301
     10       17          -0.020709197   -0.006629729    0.228720652
     11        7           0.107375256    0.169682520    0.071154991
     12        8          -0.022965099   -0.096033912    0.028589282
     13        8          -0.006086562   -0.046045922   -0.095868256
 -------------------------------------------------------------------
 Cartesian Forces:  Max     0.228720652 RMS     0.083624661

 GradGradGradGradGradGradGradGradGradGradGradGradGradGradGradGradGradGrad
 Berny optimization.
 FormGI is forming the generalized inverse of G from B-inverse, IUseBI=4.
 Internal  Forces:  Max     0.228723633 RMS     0.050302213
 Search for a local minimum.
 Step number   1 out of a maximum of   73
 All quantities printed in internal units (Hartrees-Bohrs-Radians)
 Mixed Optimization -- RFO/linear search
 Second derivative matrix not updated -- first step.
 ITU=  0
     Eigenvalues ---    0.00230   0.00230   0.00230   0.04734   0.04734
     Eigenvalues ---    0.04734   0.08487   0.08487   0.08487   0.08487
     Eigenvalues ---    0.08931   0.08931   0.16743   0.16743   0.16743
     Eigenvalues ---    0.20378   0.20378   0.20378   0.22001   0.22001
     Eigenvalues ---    0.25000   0.25000   0.25000   0.25000   0.25000
     Eigenvalues ---    0.25000   0.52948   0.52948   0.52948   0.52948
     Eigenvalues ---    0.52948   0.52948   0.57823
 RFO step:  Lambda=-2.58844028D-01 EMin= 2.30000000D-03
 Linear search not attempted -- first point.
 Maximum step size (   0.300) exceeded in Quadratic search.
    -- Step size scaled by   0.503
 Iteration  1 RMS(Cart)=  0.08136609 RMS(Int)=  0.00264764
 Iteration  2 RMS(Cart)=  0.00307502 RMS(Int)=  0.00097034
 Iteration  3 RMS(Cart)=  0.00001049 RMS(Int)=  0.00097032
 Iteration  4 RMS(Cart)=  0.00000003 RMS(Int)=  0.00097032
 Variable       Old X    -DE/DX   Delta X   Delta X   Delta X     New X
                                 (Linear)    (Quad)   (Total)
    R1        3.76056   0.07567   0.00000   0.08228   0.08228   3.84284
    R2        3.76056   0.08791   0.00000   0.09559   0.09559   3.85615
    R3        4.30858   0.04756   0.00000   0.04997   0.04997   4.35855
    R4        4.30858   0.04490   0.00000   0.04717   0.04717   4.35575
    R5        3.76056   0.22872   0.00000   0.13746   0.13746   3.89802
    R6        3.76056   0.07832   0.00000   0.08517   0.08517   3.84573
    R7        2.57003  -0.09246   0.00000  -0.05901  -0.05901   2.51102
    R8        2.57003  -0.09988   0.00000  -0.06374  -0.06374   2.50628
    R9        2.57003  -0.08999   0.00000  -0.05743  -0.05743   2.51260
   R10        2.57003  -0.10001   0.00000  -0.06382  -0.06382   2.50620
   R11        2.57003  -0.09582   0.00000  -0.06115  -0.06115   2.50888
   R12        2.57003  -0.09737   0.00000  -0.06214  -0.06214   2.50789
    A1        1.57080   0.01082   0.00000   0.01344   0.01348   1.58428
    A2        1.57080   0.00367   0.00000   0.00546   0.00535   1.57615
    A3        1.57080  -0.01008   0.00000  -0.01237  -0.01243   1.55836
    A4        1.57080   0.00477   0.00000   0.00691   0.00702   1.57781
    A5        1.57080   0.01672   0.00000   0.01883   0.01877   1.58957
    A6        1.57080  -0.00679   0.00000  -0.00754  -0.00758   1.56322
    A7        1.57080  -0.01778   0.00000  -0.02039  -0.02045   1.55035
    A8        1.57080  -0.00421   0.00000  -0.00624  -0.00621   1.56459
    A9        1.57080  -0.02237   0.00000  -0.02700  -0.02696   1.54384
   A10        1.57080   0.00605   0.00000   0.00647   0.00653   1.57732
   A11        1.57080  -0.00424   0.00000  -0.00612  -0.00615   1.56464
   A12        1.57080   0.02344   0.00000   0.02857   0.02862   1.59942
   A13        1.91063   0.02617   0.00000   0.03389   0.03210   1.94273
   A14        1.91063   0.05284   0.00000   0.06026   0.05850   1.96913
   A15        1.91063  -0.00274   0.00000   0.01333   0.01026   1.92090
   A16        1.91063   0.02302   0.00000   0.03031   0.02850   1.93913
   A17        1.91063   0.06195   0.00000   0.06881   0.06705   1.97768
   A18        1.91063  -0.00785   0.00000   0.00735   0.00426   1.91490
   A19        1.91063   0.02056   0.00000   0.02832   0.02632   1.93695
   A20        1.91063   0.06809   0.00000   0.07531   0.07339   1.98402
   A21        1.91063  -0.00769   0.00000   0.00838   0.00502   1.91566
   A22        3.14159   0.00403   0.00000   0.00590   0.00590   3.14749
   A23        3.14159   0.00074   0.00000   0.00107   0.00105   3.14264
   A24        3.14159   0.00845   0.00000   0.01236   0.01237   3.15396
   A25        3.14159  -0.00053   0.00000  -0.00078  -0.00074   3.14085
   A26        3.14159   0.00566   0.00000   0.00818   0.00818   3.14977
   A27        3.14159  -0.00107   0.00000  -0.00157  -0.00151   3.14008
    D1        1.69913   0.01503   0.00000   0.02871   0.02929   1.72842
    D2       -0.39527  -0.02999   0.00000  -0.04527  -0.04585  -0.44112
    D3       -3.01326   0.03175   0.00000   0.04754   0.04814  -2.96512
    D4        1.17553  -0.01328   0.00000  -0.02645  -0.02700   1.14853
    D5       -1.44247   0.00937   0.00000   0.02053   0.02111  -1.42135
    D6        2.74632  -0.03565   0.00000  -0.05345  -0.05403   2.69230
    D7        0.12833   0.03282   0.00000   0.04910   0.04965   0.17798
    D8       -1.96606  -0.01221   0.00000  -0.02488  -0.02549  -1.99156
    D9       -0.85521  -0.02045   0.00000  -0.03315  -0.03364  -0.88885
   D10        1.23919   0.02197   0.00000   0.03655   0.03722   1.27641
   D11       -2.42600  -0.02412   0.00000  -0.03861  -0.03925  -2.46525
   D12       -0.33161   0.01830   0.00000   0.03110   0.03161  -0.30000
   D13        2.28638  -0.01991   0.00000  -0.03237  -0.03290   2.25348
   D14       -1.90241   0.02251   0.00000   0.03733   0.03796  -1.86444
   D15        0.71559  -0.01567   0.00000  -0.02624  -0.02690   0.68869
   D16        2.80998   0.02675   0.00000   0.04346   0.04396   2.85395
   D17        2.48578  -0.01710   0.00000  -0.03066  -0.03135   2.45443
   D18       -1.70301   0.02777   0.00000   0.04306   0.04363  -1.65938
   D19        0.91499  -0.02792   0.00000  -0.04410  -0.04469   0.87029
   D20        3.00938   0.01695   0.00000   0.02962   0.03029   3.03967
   D21       -0.65581  -0.02113   0.00000  -0.03656  -0.03724  -0.69305
   D22        1.43858   0.02374   0.00000   0.03716   0.03775   1.47633
   D23       -2.22661  -0.02718   0.00000  -0.04303  -0.04359  -2.27020
   D24       -0.13221   0.01769   0.00000   0.03069   0.03139  -0.10082
         Item               Value     Threshold  Converged?
 Maximum Force            0.228724     0.000450     NO 
 RMS     Force            0.050302     0.000300     NO 
 Maximum Displacement     0.239237     0.001800     NO 
 RMS     Displacement     0.079980     0.001200     NO 
 Predicted change in Energy=-1.134262D-01
 GradGradGradGradGradGradGradGradGradGradGradGradGradGradGradGradGradGrad

                          Input orientation:                          
 ---------------------------------------------------------------------
 Center     Atomic      Atomic             Coordinates (Angstroms)
 Number     Number       Type             X           Y           Z
 ---------------------------------------------------------------------
      1         78           0       -0.340463    0.340719    0.011501
      2          7           0       -0.318528   -1.692678    0.022137
      3          8           0        0.906870   -2.161293    0.232954
      4          8           0       -0.822124   -2.218387   -1.086469
      5          7           0       -0.317305    0.357809   -2.028882
      6          8           0        0.659569   -0.409512   -2.503010
      7          8           0       -1.472893   -0.003798   -2.569932
      8         17           0       -2.646810    0.328275    0.028517
      9         17           0       -0.367193    2.645526    0.013027
     10         17           0       -0.380764    0.325423    2.073793
     11          7           0        1.694205    0.376850   -0.006721
     12          8           0        2.145420    1.339232   -0.802244
     13          8           0        2.235835    0.500263    1.198537
 ---------------------------------------------------------------------
                    Distance matrix (angstroms):
                    1          2          3          4          5
     1  Pt   0.000000
     2  N    2.033543   0.000000
     3  O    2.804451   1.328775   0.000000
     4  O    2.826050   1.326268   2.175673   0.000000
     5  N    2.040586   2.900204   3.600053   2.789224   0.000000
     6  O    2.808145   2.996591   3.258127   2.733867   1.329609
     7  O    2.839874   3.302075   4.263123   2.743823   1.326226
     8  Cl   2.306443   3.083049   4.343775   3.325381   3.108112
     9  Cl   2.304963   4.338487   4.977661   5.007345   3.066844
    10  Cl   2.062742   2.878523   3.351186   4.080812   4.103294
    11  N    2.035071   2.887018   2.668241   3.772668   2.852310
    12  O    2.799790   3.992884   3.854778   4.641525   2.921104
    13  O    2.841095   3.566185   3.127679   4.686515   4.117651
                    6          7          8          9         10
     6  O    0.000000
     7  O    2.171745   0.000000
     8  Cl   4.229078   2.870591   0.000000
     9  Cl   4.088758   3.861757   3.250623   0.000000
    10  Cl   4.750742   4.781768   3.052560   3.103194   0.000000
    11  N    2.814302   4.092121   4.341430   3.065395   2.938823
    12  O    2.856303   4.245072   4.967662   2.946913   3.959925
    13  O    4.124774   5.311318   5.023818   3.575380   2.764640
                   11         12         13
    11  N    0.000000
    12  O    1.327642   0.000000
    13  O    1.327117   2.171444   0.000000
 Stoichiometry    Cl3N3O6Pt(2-)
 Framework group  C1[X(Cl3N3O6Pt)]
 Deg. of freedom    33
 Full point group                 C1      NOp   1
 Largest Abelian subgroup         C1      NOp   1
 Largest concise Abelian subgroup C1      NOp   1
                         Standard orientation:                         
 ---------------------------------------------------------------------
 Center     Atomic      Atomic             Coordinates (Angstroms)
 Number     Number       Type             X           Y           Z
 ---------------------------------------------------------------------
      1         78           0        0.054759   -0.154342   -0.058225
      2          7           0       -1.039726    0.961118   -1.359436
      3          8           0       -0.451358    2.125750   -1.610633
      4          8           0       -2.284198    1.159931   -0.946217
      5          7           0       -1.138689    0.430694    1.490132
      6          8           0       -1.268155    1.753616    1.521419
      7          8           0       -2.337665   -0.135871    1.471759
      8         17           0       -1.295814   -1.978786   -0.466927
      9         17           0        1.302333   -1.424001    1.406144
     10         17           0        1.252187   -0.760109   -1.624788
     11          7           0        1.258102    1.442476    0.320788
     12          8           0        1.575820    1.503213    1.608421
     13          8           0        2.362182    1.464344   -0.415262
 ---------------------------------------------------------------------
 Rotational constants (GHZ):      0.5674637      0.5278413      0.4819884
 Basis read from rwf:  (5D, 7F)
 Pseudo-potential data read from rwf file.
 There are   216 symmetry adapted cartesian basis functions of A   symmetry.
 There are   202 symmetry adapted basis functions of A   symmetry.
   202 basis functions,   379 primitive gaussians,   216 cartesian basis functions
    70 alpha electrons       70 beta electrons
       nuclear repulsion energy      1554.2900427683 Hartrees.
 NAtoms=   13 NActive=   13 NUniq=   13 SFac= 1.00D+00 NAtFMM=   60 NAOKFM=F Big=F
 Integral buffers will be    131072 words long.
 Raffenetti 2 integral format.
 Two-electron integral symmetry is turned on.
 ------------------------------------------------------------------------------
 Polarizable Continuum Model (PCM)
 =================================
 Model                : PCM (using non-symmetric T matrix).
 Atomic radii         : UFF (Universal Force Field).
 Polarization charges : Total charges.
 Charge compensation  : None.
 Solution method      : On-the-fly selection.
 Cavity type          : Scaled VdW (van der Waals Surface) (Alpha=1.100).
 Cavity algorithm     : GePol (No added spheres)
                        Default sphere list used, NSphG=   13.
                        Lebedev-Laikov grids with approx.  5.0 points / Ang**2.
                        Smoothing algorithm: Karplus/York (Gamma=1.0000).
                        Polarization charges: spherical gaussians, with
                                              point-specific exponents (IZeta= 3).
                        Self-potential: point-specific (ISelfS= 7).
                        Self-field    : sphere-specific E.n sum rule (ISelfD= 2).
 1st derivatives      : Analytical E(r).r(x)/FMM algorithm (CHGder, D1EAlg=3).
                        Cavity 1st derivative terms included.
 Solvent              : Water, Eps=  78.355300 Eps(inf)=   1.777849
 ------------------------------------------------------------------------------
 Spheres list:
 ISph  on   Nord     Re0    Alpha      Xe            Ye            Ze
    1  Pt      1    1.3770  1.100      0.054759     -0.154342     -0.058225
    2   N      2    1.8300  1.100     -1.039726      0.961118     -1.359436
    3   O      3    1.7500  1.100     -0.451358      2.125750     -1.610633
    4   O      4    1.7500  1.100     -2.284198      1.159931     -0.946217
    5   N      5    1.8300  1.100     -1.138689      0.430694      1.490132
    6   O      6    1.7500  1.100     -1.268155      1.753616      1.521419
    7   O      7    1.7500  1.100     -2.337665     -0.135871      1.471759
    8  Cl      8    1.9735  1.100     -1.295814     -1.978786     -0.466927
    9  Cl      9    1.9735  1.100      1.302333     -1.424001      1.406144
   10  Cl     10    1.9735  1.100      1.252187     -0.760109     -1.624788
   11   N     11    1.8300  1.100      1.258102      1.442476      0.320788
   12   O     12    1.7500  1.100      1.575820      1.503213      1.608421
   13   O     13    1.7500  1.100      2.362182      1.464344     -0.415262
 ------------------------------------------------------------------------------
 One-electron integrals computed using PRISM.
   1 Symmetry operations used in ECPInt.
 ECPInt:  NShTT=    3741 NPrTT=   16128 LenC2=    3547 LenP2D=   10939.
 LDataN:  DoStor=T MaxTD1= 6 Len=  172
 NBasis=   202 RedAO= T EigKep=  3.42D-03  NBF=   202
 NBsUse=   202 1.00D-06 EigRej= -1.00D+00 NBFU=   202
 Defaulting to unpruned grid for atomic number  78.
 Initial guess from the checkpoint file:  "/home/scr/diego/Gau-21306.chk"
 B after Tr=     0.000000    0.000000    0.000000
         Rot=    0.999650    0.025383   -0.000384    0.007487 Ang=   3.03 deg.
 ExpMin= 2.90D-02 ExpMax= 1.04D+04 ExpMxC= 1.57D+03 IAcc=3 IRadAn=         5 AccDes= 0.00D+00
 Harris functional with IExCor=  402 and IRadAn=       5 diagonalized for initial guess.
 HarFok:  IExCor=  402 AccDes= 0.00D+00 IRadAn=         5 IDoV= 1 UseB2=F ITyADJ=14
 ICtDFT=  3500011 ScaDFX=  1.000000  1.000000  1.000000  1.000000
 Defaulting to unpruned grid for atomic number  78.
 Defaulting to unpruned grid for atomic number  78.
 Defaulting to unpruned grid for atomic number  78.
 Defaulting to unpruned grid for atomic number  78.
 Defaulting to unpruned grid for atomic number  78.
 Defaulting to unpruned grid for atomic number  78.
 Defaulting to unpruned grid for atomic number  78.
 Defaulting to unpruned grid for atomic number  78.
 FoFCou: FMM=F IPFlag=           0 FMFlag=      100000 FMFlg1=           0
         NFxFlg=           0 DoJE=T BraDBF=F KetDBF=T FulRan=T
         wScrn=  0.000000 ICntrl=     500 IOpCl=  0 I1Cent=   200000004 NGrid=           0
         NMat0=    1 NMatS0=      1 NMatT0=    0 NMatD0=    1 NMtDS0=    0 NMtDT0=    0
 Petite list used in FoFCou.
 Keep R1 ints in memory in canonical form, NReq=216108146.
 Requested convergence on RMS density matrix=1.00D-08 within 128 cycles.
 Requested convergence on MAX density matrix=1.00D-06.
 Requested convergence on             energy=1.00D-06.
 No special actions if energy rises.
 Defaulting to unpruned grid for atomic number  78.
 Defaulting to unpruned grid for atomic number  78.
 Defaulting to unpruned grid for atomic number  78.
 Defaulting to unpruned grid for atomic number  78.
 Defaulting to unpruned grid for atomic number  78.
 Defaulting to unpruned grid for atomic number  78.
 Defaulting to unpruned grid for atomic number  78.
 Defaulting to unpruned grid for atomic number  78.
 Inv3:  Mode=1 IEnd=     6949452.
 Iteration    1 A*A^-1 deviation from unit magnitude is 6.22D-15 for   1200.
 Iteration    1 A*A^-1 deviation from orthogonality  is 3.54D-15 for    915    503.
 Iteration    1 A^-1*A deviation from unit magnitude is 6.66D-15 for   1183.
 Iteration    1 A^-1*A deviation from orthogonality  is 1.96D-15 for   1056   1005.
 Error on total polarization charges =  0.00900
 SCF Done:  E(RB3LYP) =  -2114.41625128     A.U. after   17 cycles
            NFock= 17  Conv=0.49D-08     -V/T= 2.0436
   1 Symmetry operations used in ECPInt.
 ECPInt:  NShTT=    3741 NPrTT=   16128 LenC2=    3547 LenP2D=   10939.
 LDataN:  DoStor=T MaxTD1= 7 Len=  274
 D1PCM: PCM CHGder 1st derivatives, ID1Alg=3 FixD1E=F DoIter=F DoCFld=F I1PDM=0.
 Calling FoFJK, ICntrl=      2127 FMM=F ISym2X=0 I1Cent= 0 IOpClX= 0 NMat=1 NMatS=1 NMatT=0.
 Defaulting to unpruned grid for atomic number  78.
 Defaulting to unpruned grid for atomic number  78.
 Defaulting to unpruned grid for atomic number  78.
 Defaulting to unpruned grid for atomic number  78.
 Defaulting to unpruned grid for atomic number  78.
 Defaulting to unpruned grid for atomic number  78.
 Defaulting to unpruned grid for atomic number  78.
 Defaulting to unpruned grid for atomic number  78.
 ***** Axes restored to original set *****
 -------------------------------------------------------------------
 Center     Atomic                   Forces (Hartrees/Bohr)
 Number     Number              X              Y              Z
 -------------------------------------------------------------------
      1       78          -0.011979623    0.009382267   -0.097008476
      2        7           0.094615096   -0.099767839   -0.130510571
      3        8          -0.080093283    0.026255207    0.026076731
      4        8          -0.003646286    0.028530686    0.088237031
      5        7          -0.031478601   -0.150597630   -0.104109480
      6        8          -0.034336633    0.070514814    0.026038533
      7        8           0.063452568    0.060252259    0.025597344
      8       17          -0.033821091    0.003314014    0.005987621
      9       17          -0.000126832    0.033535880   -0.001796919
     10       17          -0.009748487   -0.005786459    0.155211953
     11        7           0.098486280    0.155051814    0.062641124
     12        8          -0.025840960   -0.084020363    0.018462527
     13        8          -0.025482146   -0.046664650   -0.074827417
 -------------------------------------------------------------------
 Cartesian Forces:  Max     0.155211953 RMS     0.070224025

 GradGradGradGradGradGradGradGradGradGradGradGradGradGradGradGradGradGrad
 Berny optimization.
 Using GEDIIS/GDIIS optimizer.
 FormGI is forming the generalized inverse of G from B-inverse, IUseBI=4.
 Internal  Forces:  Max     0.155411397 RMS     0.036794316
 Search for a local minimum.
 Step number   2 out of a maximum of   73
 All quantities printed in internal units (Hartrees-Bohrs-Radians)
 Mixed Optimization -- RFO/linear search
 Update second derivatives using D2CorX and points    1    2
 DE= -1.10D-01 DEPred=-1.13D-01 R= 9.73D-01
 TightC=F SS=  1.41D+00  RLast= 3.50D-01 DXNew= 5.0454D-01 1.0507D+00
 Trust test= 9.73D-01 RLast= 3.50D-01 DXMaxT set to 5.05D-01
 ITU=  1  0
 Use linear search instead of GDIIS.
 Linear search step of   0.596 exceeds DXMaxT=   0.505 but not scaled.
 Quartic linear search produced a step of  2.00000.
 Iteration  1 RMS(Cart)=  0.15303619 RMS(Int)=  0.01442661
 Iteration  2 RMS(Cart)=  0.01367703 RMS(Int)=  0.00535914
 Iteration  3 RMS(Cart)=  0.00014956 RMS(Int)=  0.00535817
 Iteration  4 RMS(Cart)=  0.00000164 RMS(Int)=  0.00535817
 Iteration  5 RMS(Cart)=  0.00000002 RMS(Int)=  0.00535817
 Variable       Old X    -DE/DX   Delta X   Delta X   Delta X     New X
                                 (Linear)    (Quad)   (Total)
    R1        3.84284   0.04502   0.16457   0.00000   0.16457   4.00741
    R2        3.85615   0.05227   0.19119   0.00000   0.19119   4.04734
    R3        4.35855   0.03385   0.09994   0.00000   0.09994   4.45849
    R4        4.35575   0.03353   0.09435   0.00000   0.09435   4.45009
    R5        3.89802   0.15541   0.27493   0.00000   0.27493   4.17294
    R6        3.84573   0.04749   0.17034   0.00000   0.17034   4.01607
    R7        2.51102  -0.07895  -0.11801   0.00000  -0.11801   2.39301
    R8        2.50628  -0.08369  -0.12749   0.00000  -0.12749   2.37880
    R9        2.51260  -0.07521  -0.11486   0.00000  -0.11486   2.39774
   R10        2.50620  -0.08215  -0.12765   0.00000  -0.12765   2.37856
   R11        2.50888  -0.08073  -0.12230   0.00000  -0.12230   2.38658
   R12        2.50789  -0.08270  -0.12428   0.00000  -0.12428   2.38361
    A1        1.58428  -0.00173   0.02697   0.00000   0.02721   1.61149
    A2        1.57615   0.00241   0.01071   0.00000   0.01008   1.58623
    A3        1.55836  -0.00274  -0.02487   0.00000  -0.02523   1.53313
    A4        1.57781   0.00420   0.01403   0.00000   0.01467   1.59248
    A5        1.58957   0.00662   0.03754   0.00000   0.03720   1.62677
    A6        1.56322   0.00013  -0.01516   0.00000  -0.01539   1.54783
    A7        1.55035  -0.00516  -0.04090   0.00000  -0.04124   1.50911
    A8        1.56459  -0.00236  -0.01241   0.00000  -0.01222   1.55237
    A9        1.54384  -0.00854  -0.05391   0.00000  -0.05360   1.49024
   A10        1.57732   0.00434   0.01305   0.00000   0.01338   1.59070
   A11        1.56464  -0.00426  -0.01231   0.00000  -0.01246   1.55219
   A12        1.59942   0.00713   0.05724   0.00000   0.05754   1.65696
   A13        1.94273   0.01211   0.06420   0.00000   0.05252   1.99525
   A14        1.96913   0.01929   0.11700   0.00000   0.10575   2.07488
   A15        1.92090   0.01288   0.02053   0.00000   0.00459   1.92548
   A16        1.93913   0.00852   0.05699   0.00000   0.04521   1.98434
   A17        1.97768   0.02722   0.13409   0.00000   0.12295   2.10063
   A18        1.91490   0.00877   0.00852   0.00000  -0.00743   1.90747
   A19        1.93695   0.00976   0.05264   0.00000   0.03963   1.97658
   A20        1.98402   0.02654   0.14677   0.00000   0.13459   2.11860
   A21        1.91566   0.01017   0.01004   0.00000  -0.00726   1.90839
   A22        3.14749  -0.00160   0.01180   0.00000   0.01182   3.15931
   A23        3.14264  -0.00447   0.00210   0.00000   0.00197   3.14462
   A24        3.15396   0.00661   0.02474   0.00000   0.02475   3.17871
   A25        3.14085   0.00006  -0.00148   0.00000  -0.00125   3.13960
   A26        3.14977   0.00194   0.01636   0.00000   0.01637   3.16615
   A27        3.14008   0.00153  -0.00302   0.00000  -0.00270   3.13738
    D1        1.72842   0.01808   0.05859   0.00000   0.06109   1.78951
    D2       -0.44112  -0.02302  -0.09170   0.00000  -0.09414  -0.53526
    D3       -2.96512   0.02472   0.09628   0.00000   0.09890  -2.86622
    D4        1.14853  -0.01637  -0.05401   0.00000  -0.05633   1.09219
    D5       -1.42135   0.01614   0.04223   0.00000   0.04471  -1.37664
    D6        2.69230  -0.02496  -0.10806   0.00000  -0.11052   2.58178
    D7        0.17798   0.02319   0.09930   0.00000   0.10160   0.27958
    D8       -1.99156  -0.01790  -0.05098   0.00000  -0.05363  -2.04519
    D9       -0.88885  -0.01882  -0.06729   0.00000  -0.06921  -0.95806
   D10        1.27641   0.02008   0.07444   0.00000   0.07745   1.35385
   D11       -2.46525  -0.02129  -0.07850   0.00000  -0.08135  -2.54661
   D12       -0.30000   0.01761   0.06323   0.00000   0.06530  -0.23469
   D13        2.25348  -0.01888  -0.06580   0.00000  -0.06796   2.18553
   D14       -1.86444   0.02002   0.07593   0.00000   0.07870  -1.78574
   D15        0.68869  -0.01465  -0.05380   0.00000  -0.05672   0.63196
   D16        2.85395   0.02424   0.08793   0.00000   0.08993   2.94388
   D17        2.45443  -0.02132  -0.06270   0.00000  -0.06569   2.38874
   D18       -1.65938   0.02023   0.08726   0.00000   0.08952  -1.56986
   D19        0.87029  -0.01947  -0.08939   0.00000  -0.09178   0.77851
   D20        3.03967   0.02207   0.06058   0.00000   0.06343   3.10310
   D21       -0.69305  -0.01972  -0.07447   0.00000  -0.07737  -0.77042
   D22        1.47633   0.02183   0.07549   0.00000   0.07784   1.55417
   D23       -2.27020  -0.02389  -0.08718   0.00000  -0.08939  -2.35959
   D24       -0.10082   0.01765   0.06279   0.00000   0.06582  -0.03500
         Item               Value     Threshold  Converged?
 Maximum Force            0.155411     0.000450     NO 
 RMS     Force            0.036794     0.000300     NO 
 Maximum Displacement     0.409221     0.001800     NO 
 RMS     Displacement     0.151142     0.001200     NO 
 Predicted change in Energy=-1.097013D-01
 GradGradGradGradGradGradGradGradGradGradGradGradGradGradGradGradGradGrad

                          Input orientation:                          
 ---------------------------------------------------------------------
 Center     Atomic      Atomic             Coordinates (Angstroms)
 Number     Number       Type             X           Y           Z
 ---------------------------------------------------------------------
      1         78           0       -0.378590    0.340113    0.031154
      2          7           0       -0.317716   -1.779379    0.064579
      3          8           0        0.813863   -2.263972    0.361692
      4          8           0       -0.828916   -2.417489   -0.892541
      5          7           0       -0.306634    0.395604   -2.108676
      6          8           0        0.680138   -0.231090   -2.602097
      7          8           0       -1.337792    0.147480   -2.786482
      8         17           0       -2.737149    0.309625    0.083167
      9         17           0       -0.452319    2.693842    0.035583
     10         17           0       -0.507078    0.287977    2.235024
     11          7           0        1.743205    0.446249   -0.025874
     12          8           0        2.177633    1.303642   -0.845098
     13          8           0        2.427172    0.495824    1.032777
 ---------------------------------------------------------------------
                    Distance matrix (angstroms):
                    1          2          3          4          5
     1  Pt   0.000000
     2  N    2.120629   0.000000
     3  O    2.883133   1.266325   0.000000
     4  O    2.942851   1.258804   2.072532   0.000000
     5  N    2.141759   3.074689   3.798891   3.108899   0.000000
     6  O    2.895028   3.240999   3.596461   3.159139   1.268828
     7  O    2.982658   3.589135   4.511731   3.228782   1.258679
     8  Cl   2.359329   3.196551   4.394390   3.468502   3.273984
     9  Cl   2.354888   4.475340   5.127327   5.208545   3.146581
    10  Cl   2.208227   3.003439   3.430263   4.147866   4.349654
    11  N    2.125213   3.034634   2.891225   3.945619   2.922750
    12  O    2.868881   4.069312   4.005506   4.784182   2.931338
    13  O    2.983252   3.694370   3.266434   4.774552   4.165629
                    6          7          8          9         10
     6  O    0.000000
     7  O    2.061396   0.000000
     8  Cl   4.379596   3.196776   0.000000
     9  Cl   4.098175   3.902829   3.302606   0.000000
    10  Cl   5.007659   5.091694   3.099060   3.260173   0.000000
    11  N    2.868070   4.147622   4.483763   3.142575   3.193819
    12  O    2.772172   4.178982   5.099492   3.102402   4.210273
    13  O    4.097907   5.374294   5.254202   3.757279   3.177800
                   11         12         13
    11  N    0.000000
    12  O    1.262925   0.000000
    13  O    1.261352   2.059431   0.000000
 Stoichiometry    Cl3N3O6Pt(2-)
 Framework group  C1[X(Cl3N3O6Pt)]
 Deg. of freedom    33
 Full point group                 C1      NOp   1
 Largest Abelian subgroup         C1      NOp   1
 Largest concise Abelian subgroup C1      NOp   1
                         Standard orientation:                         
 ---------------------------------------------------------------------
 Center     Atomic      Atomic             Coordinates (Angstroms)
 Number     Number       Type             X           Y           Z
 ---------------------------------------------------------------------
      1         78           0        0.034283   -0.176488   -0.022673
      2          7           0       -1.036945    0.751829   -1.599940
      3          8           0       -0.396911    1.666768   -2.197286
      4          8           0       -2.226575    1.110589   -1.398294
      5          7           0       -1.043777    0.917113    1.470296
      6          8           0       -1.000385    2.175222    1.311536
      7          8           0       -2.214016    0.578002    1.786235
      8         17           0       -1.491795   -1.975603    0.003856
      9         17           0        1.242319   -1.232671    1.700876
     10         17           0        1.111820   -1.346126   -1.554707
     11          7           0        1.443566    1.413729    0.018069
     12          8           0        1.741520    1.785967    1.187531
     13          8           0        2.487144    1.384972   -0.689835
 ---------------------------------------------------------------------
 Rotational constants (GHZ):      0.5041439      0.4918357      0.4629093
 Basis read from rwf:  (5D, 7F)
 Pseudo-potential data read from rwf file.
 There are   216 symmetry adapted cartesian basis functions of A   symmetry.
 There are   202 symmetry adapted basis functions of A   symmetry.
   202 basis functions,   379 primitive gaussians,   216 cartesian basis functions
    70 alpha electrons       70 beta electrons
       nuclear repulsion energy      1506.8398441680 Hartrees.
 NAtoms=   13 NActive=   13 NUniq=   13 SFac= 1.00D+00 NAtFMM=   60 NAOKFM=F Big=F
 Integral buffers will be    131072 words long.
 Raffenetti 2 integral format.
 Two-electron integral symmetry is turned on.
 ------------------------------------------------------------------------------
 Polarizable Continuum Model (PCM)
 =================================
 Model                : PCM (using non-symmetric T matrix).
 Atomic radii         : UFF (Universal Force Field).
 Polarization charges : Total charges.
 Charge compensation  : None.
 Solution method      : On-the-fly selection.
 Cavity type          : Scaled VdW (van der Waals Surface) (Alpha=1.100).
 Cavity algorithm     : GePol (No added spheres)
                        Default sphere list used, NSphG=   13.
                        Lebedev-Laikov grids with approx.  5.0 points / Ang**2.
                        Smoothing algorithm: Karplus/York (Gamma=1.0000).
                        Polarization charges: spherical gaussians, with
                                              point-specific exponents (IZeta= 3).
                        Self-potential: point-specific (ISelfS= 7).
                        Self-field    : sphere-specific E.n sum rule (ISelfD= 2).
 1st derivatives      : Analytical E(r).r(x)/FMM algorithm (CHGder, D1EAlg=3).
                        Cavity 1st derivative terms included.
 Solvent              : Water, Eps=  78.355300 Eps(inf)=   1.777849
 ------------------------------------------------------------------------------
 Spheres list:
 ISph  on   Nord     Re0    Alpha      Xe            Ye            Ze
    1  Pt      1    1.3770  1.100      0.034283     -0.176488     -0.022673
    2   N      2    1.8300  1.100     -1.036945      0.751829     -1.599940
    3   O      3    1.7500  1.100     -0.396911      1.666768     -2.197286
    4   O      4    1.7500  1.100     -2.226575      1.110589     -1.398294
    5   N      5    1.8300  1.100     -1.043777      0.917113      1.470296
    6   O      6    1.7500  1.100     -1.000385      2.175222      1.311536
    7   O      7    1.7500  1.100     -2.214016      0.578002      1.786235
    8  Cl      8    1.9735  1.100     -1.491795     -1.975603      0.003856
    9  Cl      9    1.9735  1.100      1.242319     -1.232671      1.700876
   10  Cl     10    1.9735  1.100      1.111820     -1.346126     -1.554707
   11   N     11    1.8300  1.100      1.443566      1.413729      0.018069
   12   O     12    1.7500  1.100      1.741520      1.785967      1.187531
   13   O     13    1.7500  1.100      2.487144      1.384972     -0.689835
 ------------------------------------------------------------------------------
 One-electron integrals computed using PRISM.
   1 Symmetry operations used in ECPInt.
 ECPInt:  NShTT=    3741 NPrTT=   16128 LenC2=    3524 LenP2D=   10799.
 LDataN:  DoStor=T MaxTD1= 6 Len=  172
 NBasis=   202 RedAO= T EigKep=  4.12D-03  NBF=   202
 NBsUse=   202 1.00D-06 EigRej= -1.00D+00 NBFU=   202
 Defaulting to unpruned grid for atomic number  78.
 Initial guess from the checkpoint file:  "/home/scr/diego/Gau-21306.chk"
 B after Tr=     0.000000    0.000000    0.000000
         Rot=    0.992262    0.115139   -0.018311    0.042710 Ang=  14.26 deg.
 ExpMin= 2.90D-02 ExpMax= 1.04D+04 ExpMxC= 1.57D+03 IAcc=3 IRadAn=         5 AccDes= 0.00D+00
 Harris functional with IExCor=  402 and IRadAn=       5 diagonalized for initial guess.
 HarFok:  IExCor=  402 AccDes= 0.00D+00 IRadAn=         5 IDoV= 1 UseB2=F ITyADJ=14
 ICtDFT=  3500011 ScaDFX=  1.000000  1.000000  1.000000  1.000000
 Defaulting to unpruned grid for atomic number  78.
 Defaulting to unpruned grid for atomic number  78.
 Defaulting to unpruned grid for atomic number  78.
 Defaulting to unpruned grid for atomic number  78.
 Defaulting to unpruned grid for atomic number  78.
 Defaulting to unpruned grid for atomic number  78.
 Defaulting to unpruned grid for atomic number  78.
 Defaulting to unpruned grid for atomic number  78.
 FoFCou: FMM=F IPFlag=           0 FMFlag=      100000 FMFlg1=           0
         NFxFlg=           0 DoJE=T BraDBF=F KetDBF=T FulRan=T
         wScrn=  0.000000 ICntrl=     500 IOpCl=  0 I1Cent=   200000004 NGrid=           0
         NMat0=    1 NMatS0=      1 NMatT0=    0 NMatD0=    1 NMtDS0=    0 NMtDT0=    0
 Petite list used in FoFCou.
 Keep R1 ints in memory in canonical form, NReq=216349658.
 Requested convergence on RMS density matrix=1.00D-08 within 128 cycles.
 Requested convergence on MAX density matrix=1.00D-06.
 Requested convergence on             energy=1.00D-06.
 No special actions if energy rises.
 Defaulting to unpruned grid for atomic number  78.
 Defaulting to unpruned grid for atomic number  78.
 Defaulting to unpruned grid for atomic number  78.
 Defaulting to unpruned grid for atomic number  78.
 Defaulting to unpruned grid for atomic number  78.
 Defaulting to unpruned grid for atomic number  78.
 Defaulting to unpruned grid for atomic number  78.
 Defaulting to unpruned grid for atomic number  78.
 Inv3:  Mode=1 IEnd=     7660812.
 Iteration    1 A*A^-1 deviation from unit magnitude is 6.22D-15 for   1359.
 Iteration    1 A*A^-1 deviation from orthogonality  is 3.98D-15 for    750    260.
 Iteration    1 A^-1*A deviation from unit magnitude is 6.66D-15 for     50.
 Iteration    1 A^-1*A deviation from orthogonality  is 4.29D-14 for   1024   1010.
 Error on total polarization charges =  0.00829
 SCF Done:  E(RB3LYP) =  -2114.53774703     A.U. after   18 cycles
            NFock= 18  Conv=0.36D-08     -V/T= 2.0436
   1 Symmetry operations used in ECPInt.
 ECPInt:  NShTT=    3741 NPrTT=   16128 LenC2=    3524 LenP2D=   10799.
 LDataN:  DoStor=T MaxTD1= 7 Len=  274
 D1PCM: PCM CHGder 1st derivatives, ID1Alg=3 FixD1E=F DoIter=F DoCFld=F I1PDM=0.
 Calling FoFJK, ICntrl=      2127 FMM=F ISym2X=0 I1Cent= 0 IOpClX= 0 NMat=1 NMatS=1 NMatT=0.
 Defaulting to unpruned grid for atomic number  78.
 Defaulting to unpruned grid for atomic number  78.
 Defaulting to unpruned grid for atomic number  78.
 Defaulting to unpruned grid for atomic number  78.
 Defaulting to unpruned grid for atomic number  78.
 Defaulting to unpruned grid for atomic number  78.
 Defaulting to unpruned grid for atomic number  78.
 Defaulting to unpruned grid for atomic number  78.
 ***** Axes restored to original set *****
 -------------------------------------------------------------------
 Center     Atomic                   Forces (Hartrees/Bohr)
 Number     Number              X              Y              Z
 -------------------------------------------------------------------
      1       78          -0.003795649   -0.002534080   -0.043497114
      2        7           0.076634903   -0.069064714   -0.088394011
      3        8          -0.028047997    0.031023988    0.040678029
      4        8          -0.037614449    0.032012474    0.032120042
      5        7          -0.008942915   -0.112905888   -0.074317927
      6        8           0.011642095    0.041193371    0.031936014
      7        8          -0.006347419    0.050064914    0.032645912
      8       17          -0.015016480    0.000447087   -0.002300624
      9       17           0.001217492    0.016135884   -0.001161453
     10       17           0.001487258   -0.003823941    0.064421889
     11        7           0.072208164    0.114300821    0.035970563
     12        8          -0.029936610   -0.043211288   -0.022570599
     13        8          -0.033488391   -0.053638627   -0.005530720
 -------------------------------------------------------------------
 Cartesian Forces:  Max     0.114300821 RMS     0.046297792

 GradGradGradGradGradGradGradGradGradGradGradGradGradGradGradGradGradGrad
 Berny optimization.
 Using GEDIIS/GDIIS optimizer.
 FormGI is forming the generalized inverse of G from B-inverse, IUseBI=4.
 Internal  Forces:  Max     0.064306993 RMS     0.020571488
 Search for a local minimum.
 Step number   3 out of a maximum of   73
 All quantities printed in internal units (Hartrees-Bohrs-Radians)
 Mixed Optimization -- RFO/linear search
 Update second derivatives using D2CorX and points    2    3
 ITU=  0  1  0
 Use linear search instead of GDIIS.
     Eigenvalues ---    0.00230   0.00230   0.00230   0.02282   0.02361
     Eigenvalues ---    0.02477   0.07908   0.08212   0.08744   0.08879
     Eigenvalues ---    0.08947   0.09067   0.16008   0.16761   0.17680
     Eigenvalues ---    0.18394   0.20378   0.20381   0.21677   0.22001
     Eigenvalues ---    0.24681   0.25000   0.25000   0.25000   0.25000
     Eigenvalues ---    0.31137   0.44272   0.52948   0.52948   0.52948
     Eigenvalues ---    0.52948   0.52970   0.57519
 RFO step:  Lambda=-1.18544286D-01 EMin= 2.29891465D-03
 Quartic linear search produced a step of  0.54684.
 Iteration  1 RMS(Cart)=  0.07850562 RMS(Int)=  0.00921198
 Iteration  2 RMS(Cart)=  0.00823676 RMS(Int)=  0.00519228
 Iteration  3 RMS(Cart)=  0.00005428 RMS(Int)=  0.00519213
 Iteration  4 RMS(Cart)=  0.00000044 RMS(Int)=  0.00519213
 Variable       Old X    -DE/DX   Delta X   Delta X   Delta X     New X
                                 (Linear)    (Quad)   (Total)
    R1        4.00741   0.00609   0.08999  -0.01264   0.07735   4.08476
    R2        4.04734   0.00902   0.10455  -0.00650   0.09805   4.14539
    R3        4.45849   0.01495   0.05465   0.03147   0.08612   4.54461
    R4        4.45009   0.01609   0.05159   0.03608   0.08767   4.53776
    R5        4.17294   0.06431   0.15034   0.06398   0.21432   4.38727
    R6        4.01607   0.00946   0.09315  -0.00075   0.09240   4.10847
    R7        2.39301  -0.02740  -0.06453  -0.02246  -0.08699   2.30602
    R8        2.37880  -0.02537  -0.06971  -0.01624  -0.08596   2.29284
    R9        2.39774  -0.02374  -0.06281  -0.01658  -0.07939   2.31835
   R10        2.37856  -0.02224  -0.06980  -0.01051  -0.08031   2.29824
   R11        2.38658  -0.02499  -0.06688  -0.01672  -0.08360   2.30299
   R12        2.38361  -0.02492  -0.06796  -0.01567  -0.08363   2.29998
    A1        1.61149  -0.01104   0.01488  -0.05984  -0.04494   1.56655
    A2        1.58623   0.00206   0.00551   0.00967   0.01484   1.60107
    A3        1.53313   0.00296  -0.01380   0.01449   0.00060   1.53373
    A4        1.59248   0.00074   0.00802   0.00004   0.00868   1.60115
    A5        1.62677  -0.00499   0.02034  -0.02630  -0.00559   1.62118
    A6        1.54783   0.00547  -0.00841   0.02656   0.01825   1.56608
    A7        1.50911   0.00789  -0.02255   0.04257   0.02029   1.52940
    A8        1.55237   0.00074  -0.00668   0.00706   0.00052   1.55290
    A9        1.49024   0.00554  -0.02931   0.03218   0.00308   1.49331
   A10        1.59070   0.00267   0.00731   0.01914   0.02646   1.61716
   A11        1.55219  -0.00361  -0.00681  -0.01719  -0.02404   1.52814
   A12        1.65696  -0.00816   0.03146  -0.04680  -0.01515   1.64181
   A13        1.99525  -0.01653   0.02872  -0.03357  -0.01833   1.97692
   A14        2.07488  -0.02086   0.05783  -0.05462  -0.01008   2.06479
   A15        1.92548   0.04869   0.00251   0.21594   0.20308   2.12856
   A16        1.98434  -0.01826   0.02472  -0.03794  -0.02529   1.95905
   A17        2.10063  -0.02150   0.06723  -0.06472  -0.00929   2.09134
   A18        1.90747   0.04939  -0.00406   0.22003   0.20209   2.10955
   A19        1.97658  -0.01637   0.02167  -0.03090  -0.02237   1.95421
   A20        2.11860  -0.02694   0.07360  -0.08243  -0.02171   2.09690
   A21        1.90839   0.05278  -0.00397   0.23240   0.21355   2.12194
   A22        3.15931  -0.00557   0.00646  -0.03327  -0.02669   3.13262
   A23        3.14462  -0.00808   0.00108  -0.04535  -0.04434   3.10028
   A24        3.17871   0.00280   0.01353   0.00971   0.02351   3.20222
   A25        3.13960   0.00240  -0.00068   0.01441   0.01393   3.15353
   A26        3.16615  -0.00042   0.00895  -0.00511   0.00387   3.17001
   A27        3.13738   0.00261  -0.00147   0.01448   0.01294   3.15033
    D1        1.78951   0.02098   0.03340   0.14178   0.17691   1.96642
    D2       -0.53526  -0.01427  -0.05148  -0.10456  -0.15772  -0.69298
    D3       -2.86622   0.01587   0.05408   0.11480   0.17053  -2.69569
    D4        1.09219  -0.01938  -0.03080  -0.13155  -0.16410   0.92810
[...]
 Rotational      0.268386D+07          6.428760         14.802767
 ***** Axes restored to original set *****
 -------------------------------------------------------------------
 Center     Atomic                   Forces (Hartrees/Bohr)
 Number     Number              X              Y              Z
 -------------------------------------------------------------------
      1       78           0.000034026   -0.000070665    0.000098689
      2        7          -0.000033262   -0.000028924   -0.000115918
      3        8           0.000126974   -0.000074881   -0.000059100
      4        8           0.000068747    0.000040689    0.000015239
      5        7           0.000023598   -0.000043634    0.000206854
      6        8           0.000072036   -0.000067748   -0.000108932
      7        8          -0.000183371    0.000099060   -0.000011053
      8       17          -0.000003613    0.000064650    0.000128052
      9       17           0.000213131   -0.000226627   -0.000152770
     10       17          -0.000174410    0.000129097    0.000012344
     11        7          -0.000250315   -0.000169628    0.000034837
     12        8           0.000072445    0.000286621   -0.000161427
     13        8           0.000034013    0.000061989    0.000113185
 -------------------------------------------------------------------
 Cartesian Forces:  Max     0.000286621 RMS     0.000122519
 FormGI is forming the generalized inverse of G from B-inverse, IUseBI=4.

 GradGradGradGradGradGradGradGradGradGradGradGradGradGradGradGradGradGrad
 Berny optimization.
 Internal  Forces:  Max     0.000296703 RMS     0.000139322
 Search for a local minimum.
 Step number   1 out of a maximum of    2
 All quantities printed in internal units (Hartrees-Bohrs-Radians)
 Second derivative matrix not updated -- analytic derivatives used.
 ITU=  0
     Eigenvalues ---    0.00096   0.00449   0.00480   0.04186   0.04339
     Eigenvalues ---    0.04526   0.05574   0.06156   0.06399   0.06536
     Eigenvalues ---    0.06932   0.07360   0.08362   0.08614   0.08820
     Eigenvalues ---    0.09417   0.10077   0.10536   0.11169   0.12503
     Eigenvalues ---    0.13154   0.16743   0.16799   0.20294   0.31628
     Eigenvalues ---    0.31899   0.34981   0.58950   0.59167   0.60232
     Eigenvalues ---    0.84135   0.84335   0.85484
 Angle between quadratic step and forces=  66.32 degrees.
 Linear search not attempted -- first point.
 Iteration  1 RMS(Cart)=  0.00657063 RMS(Int)=  0.00002242
 Iteration  2 RMS(Cart)=  0.00002282 RMS(Int)=  0.00000226
 Iteration  3 RMS(Cart)=  0.00000000 RMS(Int)=  0.00000226
 Variable       Old X    -DE/DX   Delta X   Delta X   Delta X     New X
                                 (Linear)    (Quad)   (Total)
    R1        3.98358   0.00008   0.00000  -0.00099  -0.00099   3.98259
    R2        3.96550  -0.00008   0.00000  -0.00074  -0.00074   3.96475
    R3        4.64604  -0.00001   0.00000   0.00014   0.00014   4.64618
    R4        4.64558  -0.00025   0.00000  -0.00241  -0.00241   4.64317
    R5        4.63964   0.00002   0.00000   0.00018   0.00018   4.63982
    R6        3.98290  -0.00012   0.00000  -0.00053  -0.00053   3.98237
    R7        2.29251   0.00006   0.00000   0.00031   0.00031   2.29282
    R8        2.29970  -0.00006   0.00000  -0.00008  -0.00008   2.29962
    R9        2.30401   0.00014   0.00000   0.00010   0.00010   2.30411
   R10        2.29097   0.00018   0.00000   0.00022   0.00022   2.29119
   R11        2.29998   0.00030   0.00000   0.00029   0.00029   2.30027
   R12        2.29178   0.00008   0.00000   0.00010   0.00010   2.29188
    A1        1.53744  -0.00012   0.00000  -0.00126  -0.00126   1.53618
    A2        1.54502   0.00013   0.00000   0.00324   0.00324   1.54827
    A3        1.59346   0.00028   0.00000   0.00219   0.00219   1.59565
    A4        1.58754   0.00007   0.00000   0.00036   0.00037   1.58791
    A5        1.58488   0.00002   0.00000   0.00087   0.00087   1.58575
    A6        1.58761  -0.00017   0.00000  -0.00298  -0.00297   1.58464
    A7        1.54008   0.00012   0.00000   0.00185   0.00185   1.54193
    A8        1.60889   0.00009   0.00000   0.00195   0.00195   1.61084
    A9        1.56623  -0.00022   0.00000  -0.00439  -0.00439   1.56184
   A10        1.56456   0.00001   0.00000   0.00204   0.00205   1.56661
   A11        1.54147  -0.00030   0.00000  -0.00558  -0.00558   1.53589
   A12        1.59190   0.00008   0.00000   0.00172   0.00171   1.59362
   A13        2.07562   0.00013   0.00000  -0.00021  -0.00021   2.07541
   A14        2.04008  -0.00008   0.00000   0.00028   0.00027   2.04035
   A15        2.16744  -0.00005   0.00000  -0.00009  -0.00009   2.16735
   A16        2.02731   0.00016   0.00000   0.00133   0.00133   2.02863
   A17        2.09044  -0.00019   0.00000  -0.00138  -0.00138   2.08906
   A18        2.16544   0.00003   0.00000   0.00005   0.00005   2.16549
   A19        2.03818  -0.00001   0.00000   0.00041   0.00040   2.03858
   A20        2.07695  -0.00001   0.00000  -0.00029  -0.00030   2.07666
   A21        2.16804   0.00002   0.00000  -0.00009  -0.00010   2.16794
   A22        3.12505  -0.00029   0.00000  -0.00424  -0.00423   3.12082
   A23        3.13089   0.00017   0.00000   0.00093   0.00093   3.13182
   A24        3.13256   0.00020   0.00000   0.00361   0.00361   3.13617
   A25        3.15367   0.00022   0.00000   0.00512   0.00512   3.15879
   A26        3.13179   0.00020   0.00000   0.00358   0.00358   3.13536
   A27        3.12525   0.00013   0.00000   0.00261   0.00261   3.12785
    D1        2.41529   0.00002   0.00000  -0.00871  -0.00871   2.40657
    D2       -0.71648   0.00010   0.00000  -0.00547  -0.00547  -0.72196
    D3       -2.28215   0.00004   0.00000  -0.00792  -0.00792  -2.29007
    D4        0.86927   0.00012   0.00000  -0.00468  -0.00468   0.86459
    D5       -0.71650  -0.00019   0.00000  -0.01229  -0.01229  -0.72879
    D6        2.43492  -0.00010   0.00000  -0.00905  -0.00905   2.42587
    D7        0.87579  -0.00010   0.00000  -0.01053  -0.01053   0.86526
    D8       -2.25598  -0.00001   0.00000  -0.00729  -0.00729  -2.26327
    D9       -0.77740   0.00007   0.00000  -0.00045  -0.00045  -0.77785
   D10        2.36439   0.00007   0.00000  -0.00115  -0.00115   2.36324
   D11       -2.32194  -0.00006   0.00000  -0.00364  -0.00364  -2.32558
   D12        0.81985  -0.00006   0.00000  -0.00434  -0.00434   0.81551
   D13        2.35211  -0.00015   0.00000  -0.00556  -0.00556   2.34655
   D14       -0.78928  -0.00016   0.00000  -0.00626  -0.00626  -0.79555
   D15        0.81118   0.00014   0.00000  -0.00010  -0.00010   0.81107
   D16       -2.33022   0.00013   0.00000  -0.00080  -0.00080  -2.33102
   D17        2.20504  -0.00011   0.00000  -0.00850  -0.00850   2.19653
   D18       -0.93132  -0.00023   0.00000  -0.01236  -0.01236  -0.94368
   D19        0.66813   0.00001   0.00000  -0.00726  -0.00727   0.66087
   D20       -2.46822  -0.00011   0.00000  -0.01112  -0.01113  -2.47934
   D21       -0.92039   0.00018   0.00000  -0.00440  -0.00440  -0.92479
   D22        2.22644   0.00006   0.00000  -0.00826  -0.00826   2.21818
   D23       -2.48433   0.00018   0.00000  -0.00628  -0.00628  -2.49061
   D24        0.66250   0.00006   0.00000  -0.01014  -0.01014   0.65237
         Item               Value     Threshold  Converged?
 Maximum Force            0.000297     0.000450     YES
 RMS     Force            0.000139     0.000300     YES
 Maximum Displacement     0.020612     0.001800     NO 
 RMS     Displacement     0.006571     0.001200     NO 
 Predicted change in Energy=-8.614945D-06
 GradGradGradGradGradGradGradGradGradGradGradGradGradGradGradGradGradGrad

 1\1\GINC-NEQC17\Freq\RB3LYP\Gen\Cl3N3O6Pt1(2-)\DIEGO\18-Aug-2021\0\\#N
  Geom=AllCheck Guess=TCheck SCRF=Check GenChk RB3LYP/ChkBas Freq\\Estr
 utura 56\\-2,1\Pt,-0.3709000147,0.3222850282,-0.021085826\N,-0.1019567
 38,-1.7685022295,-0.0164398602\O,0.6554442154,-2.2608527767,0.79328490
 9\O,-0.7213495512,-2.4049231517,-0.8484773564\N,-0.3178460052,0.253884
 8046,-2.1177503379\O,0.5558396589,-0.4388950545,-2.6109578833\O,-1.129
 5236374,0.8837241454,-2.7613568606\Cl,-2.8004475432,-0.0541434704,-0.0
 356300328\Cl,-0.654174304,2.763819848,-0.0665396643\Cl,-0.4057686412,0
 .3793433834,2.433192963\N,1.7146339065,0.6260794713,-0.0430158821\O,2.
 1556630704,1.3391814179,-0.9252294481\O,2.3962030437,0.087427444,0.803
 2129598\\Version=EM64L-G09RevD.01\State=1-A\HF=-2114.6656814\RMSD=3.62
 2e-09\RMSF=1.225e-04\ZeroPoint=0.0397638\Thermal=0.055726\Dipole=0.531
 712,-0.4076472,-0.3667742\DipoleDeriv=1.0148985,0.1221745,-0.1192983,0
 .1217279,1.0889326,0.0888544,-0.1355898,0.1034666,1.0641484,1.1931724,
 -0.2528524,0.8699351,-0.1031599,2.886448,-0.024355,0.8734494,0.1108553
 ,1.3988888,-0.693751,0.5280118,-0.4711458,0.3988043,-1.7443423,0.41284
 56,-0.4208949,0.3822865,-0.7849767,-0.6129121,-0.2364143,-0.3626114,-0
 .2274927,-1.845721,-0.3290849,-0.4120508,-0.5217885,-0.7411295,1.51682
 45,-0.8702825,0.0384984,-0.8692107,1.0940532,-0.0003223,0.1771797,-0.1
 055449,2.860159,-0.8301861,0.4551796,0.4640962,0.4513982,-0.6186046,-0
 .3815904,0.271815,-0.2375307,-1.6671869,-0.8343741,0.4074051,-0.461750
 3,0.4069148,-0.6245104,0.3400824,-0.4768215,0.349279,-1.8975025,-1.550
 5843,-0.1621411,0.0446619,-0.2175128,-0.2887168,0.018313,0.008672,-0.0
 253065,-0.2522702,-0.283886,0.1232726,-0.007275,0.1914629,-1.5478406,-
 0.0249461,0.0128809,0.0282643,-0.260886,-0.246974,-0.0242241,0.0376223
 ,-0.0260045,-0.2659053,-0.0517175,0.066596,-0.061539,-1.5820188,2.8596
 137,0.3725039,0.2427487,0.2378684,1.112391,-0.8027286,0.1072228,-0.847
 498,1.5086889,-1.6271822,-0.4891106,0.2464298,-0.5039151,-0.7668702,0.
 4405959,0.4335761,0.5340334,-0.8099557,-1.9046592,0.0264775,-0.5219116
 ,0.1391193,-0.4793137,0.3140536,-0.5060351,0.2910223,-0.8359587\Polar=
 187.1226361,-4.3624534,184.2035552,9.3101283,-6.5333227,190.2981498\PG
 =C01 [X(Cl3N3O6Pt1)]\NImag=0\\0.26975940,-0.01579633,0.26030627,-0.000
 06228,0.00084969,0.27594668,-0.04831756,0.00818578,0.01347750,0.484739
 84,0.00951591,-0.06586569,-0.00436583,-0.01996566,0.55713626,0.0137811
 0,-0.00291631,-0.04066879,0.37999040,0.03647960,0.61432388,0.00428616,
 0.00447295,-0.01350027,-0.25762548,0.14106117,-0.21747962,0.30516826,0
 .01563435,-0.00452843,0.01809151,0.14470416,-0.21825433,0.14436020,-0.
 14433518,0.18705521,-0.01028199,0.00406967,0.00076912,-0.21803373,0.13
 969796,-0.28702349,0.30836378,-0.14286888,0.36265152,0.00707713,-0.002
 72922,-0.00773571,-0.18459959,-0.12294603,-0.17363307,-0.04810977,-0.0
 1740791,-0.08216606,0.22855179,-0.01512644,-0.01058638,-0.01753348,-0.
 12898217,-0.27237139,-0.18615285,-0.00332580,0.04988530,0.00065933,0.1
 4243735,0.24628914,-0.01083943,-0.00611965,0.00148712,-0.17403678,-0.1
 7932566,-0.28783839,-0.08032893,-0.01616639,-0.07659340,0.26053998,0.2
 0267777,0.36525469,-0.04142430,-0.01455327,0.00764359,-0.00320359,-0.0
 0302641,-0.00550793,0.00117969,0.00106495,0.00039805,0.00068585,0.0009
 1974,0.00580596,0.63598207,-0.01449979,-0.04861169,-0.00606447,0.00303
 311,-0.00111102,0.01327492,-0.00080005,-0.00087979,-0.00147202,-0.0004
 1216,-0.00161298,-0.00320513,-0.36816875,0.45542835,0.00827454,-0.0064
 1758,-0.07189371,-0.00095131,0.02861991,-0.00206939,0.00273429,-0.0092
 7642,0.00233963,-0.00203937,-0.01005760,-0.00630316,0.03690891,-0.0241
 1660,0.57285315,0.00091603,0.01088389,0.00442070,0.00112312,0.00449488
 ,0.00138163,0.00007085,-0.00164453,0.00057624,-0.00098966,-0.00260214,
 -0.00217736,-0.30493317,0.19904483,0.14695492,0.38789416,0.01106862,0.
 00590408,-0.00368610,-0.00381866,-0.00599918,-0.00420571,0.00112163,0.
 00139400,0.00076403,0.00048745,0.00228243,0.00719002,0.19896026,-0.212
 06932,-0.11749046,-0.28612873,0.25274513,0.01796017,-0.01422817,-0.008
 60550,0.00035242,-0.00935467,-0.00147926,-0.00086157,0.00385891,-0.000
 76296,0.00135720,0.00567458,0.00226374,0.15492814,-0.12387161,-0.21874
 156,-0.15290094,0.12178764,0.18909434,0.00064281,0.01091216,-0.0056060
 6,0.00114947,-0.00183641,0.00133625,-0.00060338,0.00060261,-0.00011034
 ,0.00019329,0.00050102,-0.00127033,-0.28907136,0.18177348,-0.18213693,
 -0.08243728,0.08028828,-0.02041219,0.37069631,0.01064459,0.00634298,0.
 00407490,-0.00013061,0.00209122,-0.00128912,0.00007840,-0.00034226,-0.
 00003467,-0.00063586,-0.00087963,0.00030355,0.18184768,-0.19596986,0.1
 4063981,0.08042365,-0.04302496,0.01646915,-0.26983711,0.23300752,-0.02
 000128,0.01558352,-0.00626920,0.00012034,-0.00971642,-0.00073839,-0.00
 108172,0.00388009,-0.00038376,0.00101407,0.00433574,0.00163398,-0.1871
 4348,0.14432681,-0.28376941,-0.00284710,0.00270421,0.05042953,0.205820
 87,-0.15819449,0.25347864,-0.07398551,-0.00684571,-0.00051862,-0.00213
 422,0.00149628,0.00098604,0.00033074,0.00057105,0.00005068,-0.00242875
 ,0.00188779,0.00007303,-0.00182094,-0.00012058,0.00031153,0.00057036,-
 0.00018284,0.00039844,-0.00134357,0.00040926,0.00128949,0.08899749,-0.
 00790876,-0.01729444,0.00028728,0.00135983,-0.00503084,-0.00391759,0.0
 0000454,0.00092827,0.00105068,0.00486607,0.00033047,0.00188454,0.00108
 021,-0.00071387,0.00081991,-0.00048014,0.00035062,-0.00002552,-0.00071
 655,0.00031338,-0.00014222,0.00763740,0.01503566,-0.00120461,0.0016847
 5,-0.01778815,-0.00162745,-0.00068948,-0.00120595,0.00067280,-0.000017
 19,0.00063551,0.00216495,-0.00087214,0.00028112,-0.00003829,0.00361708
 ,-0.00441623,0.00030947,-0.00093346,0.00065023,0.00490857,-0.00202352,
 0.00036660,0.00115544,0.00039783,0.01564020,-0.01767960,0.00788154,-0.
 00055011,0.00833344,-0.00137365,-0.00094242,-0.00159332,0.00009215,0.0
 0019936,-0.00071175,0.00269305,0.00149616,-0.00115696,0.00108793,-0.00
 079915,0.00052917,-0.00048262,0.00012379,0.00004942,-0.00136024,-0.000
 56791,0.00053620,-0.00414514,-0.00137422,0.01518054,0.00879378,-0.0742
 4655,0.00091323,-0.00334531,0.02156717,0.00110224,0.00642788,-0.014236
 00,0.00497515,-0.00272428,-0.01450881,-0.00580527,0.00008638,-0.001074
 65,-0.00063802,-0.00016712,0.00038106,-0.00033103,-0.00021084,-0.00103
 819,-0.00136613,-0.00213224,-0.00071083,-0.00046705,-0.00968438,0.0867
 0655,-0.00191863,0.00105239,-0.01738443,-0.00053801,-0.00050680,0.0077
 8011,0.00087236,-0.00114775,-0.00070955,0.00057771,0.00181653,-0.00063
 389,-0.00320764,-0.00077438,-0.00424878,0.00096226,-0.00011136,0.00065
 517,0.00152295,-0.00401060,0.00040167,-0.00094553,-0.00025379,0.000715
 74,0.00152731,0.00009856,0.01392660,-0.01782263,0.00055955,0.00035981,
 -0.00158556,0.00102719,-0.00156474,0.00012623,0.00198798,0.00251971,0.
 00060421,-0.00007725,0.00058363,0.00793991,0.00094630,-0.00012043,-0.0
 0075641,-0.00079333,-0.00126860,-0.00053658,-0.00084581,0.00186786,-0.
 00211512,0.00040064,-0.00527881,0.00128150,-0.00042813,-0.00042696,0.0
 1676028,0.00064919,-0.01768308,-0.00078538,0.00422539,-0.00394216,0.00
 046638,-0.00059385,-0.00079081,-0.00497250,-0.00121124,0.00037058,-0.0
 0057051,0.00092413,0.00844619,0.00038743,-0.00066435,-0.00120235,0.000
 77151,-0.00095907,-0.00092237,-0.00173254,0.00038844,0.00137812,0.0001
 4912,-0.00051641,-0.00128228,0.00445422,-0.00244250,0.01497009,0.00078
 783,-0.00163276,-0.07615632,0.00021745,-0.00056638,-0.00104600,0.00088
 579,-0.00142530,-0.00009472,0.00015397,-0.00031214,0.00047321,-0.00139
 572,0.00127846,0.02187301,0.00659705,-0.00532243,-0.01366368,-0.005022
 83,0.00373387,-0.01561267,-0.00279471,0.00067093,-0.00144164,-0.000185
 16,0.00219676,-0.00096310,-0.00191759,0.00115478,0.08865988,-0.0692905
 3,0.00395362,0.00830935,0.00313213,-0.02750514,0.00477955,-0.00728591,
 0.00827729,-0.00575544,0.00035908,0.00908504,0.00129505,-0.00169593,-0
 .00287836,-0.02789896,-0.00533223,0.00286773,0.00926078,0.00265509,-0.
 00135917,0.00942798,0.02200697,0.00224061,-0.00000803,-0.00540175,0.00
 059643,0.00059363,-0.00520042,0.00003671,0.00055194,0.56224873,0.00225
 746,-0.04668119,-0.01144901,-0.01294510,-0.00865706,-0.00316244,0.0029
 6460,0.00456977,0.00074227,0.00242115,0.00185750,0.00196214,0.00302940
 ,-0.00330850,-0.00695286,-0.00546393,0.00098889,0.00238528,0.00038060,
 0.00066564,0.00257245,0.00074185,0.00817226,0.00060823,0.00112891,-0.0
 0182260,0.00168521,0.00301050,-0.00019996,0.00008412,0.00533526,0.4307
 7405,0.00673847,-0.01216161,-0.03892916,0.00514893,-0.00346038,0.00570
 192,-0.00594546,0.00043936,-0.00413162,-0.00113386,0.00033506,-0.00194
 474,-0.01439887,0.00224869,-0.00125904,0.00487696,-0.00044750,-0.00177
 290,0.00145031,-0.00094676,-0.00098386,-0.00150549,0.00055884,0.007693
 44,0.00391509,0.00018723,-0.00131156,-0.00121697,0.00134089,-0.0009253
 1,0.06942536,-0.36399672,0.66313549,-0.00484592,-0.01745634,0.01585669
 ,-0.00129128,0.00852298,-0.00071514,0.00160766,-0.00356653,0.00159456,
 -0.00005210,-0.00330214,-0.00069829,-0.00183325,0.00042084,0.00921395,
 0.00210191,-0.00209625,-0.00506962,-0.00081925,0.00017252,-0.00390954,
 -0.01347404,-0.00087346,-0.00140277,-0.00020167,0.00216040,0.00088131,
 0.00078186,-0.00001286,0.00033229,-0.19876182,-0.12385861,0.14012762,0
 .16885109,-0.00585699,0.00284231,0.01203975,0.00183633,0.00351719,0.00
 063828,-0.00074139,-0.00220594,0.00014035,-0.00046958,-0.00114172,-0.0
 0067957,-0.00079530,0.00026808,0.00430966,0.00076351,-0.00165507,-0.00
 271127,-0.00098172,0.00015267,-0.00213249,-0.00605208,-0.00175530,-0.0
 0092486,0.00476103,-0.00029049,-0.00170950,-0.00107813,0.00020335,-0.0
 0006622,-0.11827777,-0.22824051,0.21407881,0.11730020,0.26383239,0.003
 34393,0.01200544,-0.00015667,-0.00173063,-0.00204268,-0.00184434,0.001
 90018,0.00131155,0.00087510,0.00056072,0.00097343,0.00110874,0.0042537
 4,-0.00503223,-0.00671039,-0.00732398,0.00043939,0.00263103,-0.0004505
 3,0.00110825,0.00186944,0.00651201,0.00017882,-0.00061608,-0.00199621,
 -0.00056703,0.00112100,0.00085875,-0.00036258,0.00046432,0.13247398,0.
 21246098,-0.31659418,-0.13123970,-0.29921444,0.40512481,-0.00931549,0.
 01053137,-0.02209458,0.00027929,0.01053489,-0.00241204,0.00244827,-0.0
 0598039,0.00264519,-0.00057973,-0.00410806,-0.00044269,-0.00064801,0.0
 0057320,0.00954802,0.00124316,-0.00129152,-0.00386802,-0.00057498,0.00
 059270,-0.00398958,-0.01513962,-0.00346525,0.00172294,0.00083478,0.000
 62742,0.00009924,0.00052274,0.00017642,0.00178968,-0.29743341,0.120997
 92,-0.20748209,0.04793680,0.00959189,-0.00716226,0.27042621,0.00062438
 ,0.01010181,0.00762792,0.00584292,-0.00308016,0.00532239,-0.00633489,-
 0.00259501,-0.00275137,-0.00167574,0.00008548,-0.00214585,-0.00136903,
 0.00120905,0.00017282,0.00154019,-0.00009531,-0.00042480,0.00008354,-0
 .00039614,-0.00011854,0.00220138,-0.00100349,-0.00052931,-0.00008217,0
 .00055561,-0.00059273,-0.00226699,0.00065468,0.00020632,0.11762776,-0.
 15811827,0.16182412,0.02258926,-0.03552696,0.07874110,-0.13878060,0.18
 820872,-0.00657783,0.00823061,-0.00035097,-0.00238913,0.00523085,-0.00
 389190,0.00376837,-0.00103970,0.00242863,0.00033946,-0.00154424,0.0008
 1099,0.00175353,-0.00020952,0.00234588,-0.00082985,-0.00068828,-0.0006
 9818,-0.00002974,0.00016965,-0.00042255,-0.00501230,-0.00150971,-0.000
 51477,-0.00084654,-0.00029864,0.00065103,0.00560436,-0.00030081,-0.001
 56697,-0.20245518,0.16306036,-0.30867849,-0.02497136,0.07623150,-0.087
 27279,0.23164619,-0.24733207,0.39716008\\-0.00003403,0.00007066,-0.000
 09869,0.00003326,0.00002892,0.00011592,-0.00012697,0.00007488,0.000059
 10,-0.00006875,-0.00004069,-0.00001524,-0.00002360,0.00004363,-0.00020
 685,-0.00007204,0.00006775,0.00010893,0.00018337,-0.00009906,0.0000110
 5,0.00000361,-0.00006465,-0.00012805,-0.00021313,0.00022663,0.00015277
 ,0.00017441,-0.00012910,-0.00001234,0.00025032,0.00016963,-0.00003484,
 -0.00007245,-0.00028662,0.00016143,-0.00003401,-0.00006199,-0.00011318
 \\\@


 ... FOR AFTERWARDS A MAN FINDS PLEASURE IN HIS PAINS,
 WHEN HE HAS SUFFERED LONG AND WANDERED FAR.

                                    -- HOMER
 Job cpu time:       0 days  0 hours 18 minutes 48.6 seconds.
 File lengths (MBytes):  RWF=    135 Int=      0 D2E=      0 Chk=      8 Scr=      1
 Normal termination of Gaussian 09 at Wed Aug 18 10:06:16 2021.
