 Entering Gaussian System, Link 0=g09
 Input=estrutura60_D2O.com
 Output=estrutura60_D2O.log
 Initial command:
 /home/scr/programs/g09/l1.exe "/home/scr/diego/Gau-3348.inp" -scrdir="/home/scr/diego/"
 Entering Link 1 = /home/scr/programs/g09/l1.exe PID=      3350.
  
 Copyright (c) 1988,1990,1992,1993,1995,1998,2003,2009,2013,
            Gaussian, Inc.  All Rights Reserved.
  
 This is part of the Gaussian(R) 09 program.  It is based on
 the Gaussian(R) 03 system (copyright 2003, Gaussian, Inc.),
 the Gaussian(R) 98 system (copyright 1998, Gaussian, Inc.),
 the Gaussian(R) 94 system (copyright 1995, Gaussian, Inc.),
 the Gaussian 92(TM) system (copyright 1992, Gaussian, Inc.),
 the Gaussian 90(TM) system (copyright 1990, Gaussian, Inc.),
 the Gaussian 88(TM) system (copyright 1988, Gaussian, Inc.),
 the Gaussian 86(TM) system (copyright 1986, Carnegie Mellon
 University), and the Gaussian 82(TM) system (copyright 1983,
 Carnegie Mellon University). Gaussian is a federally registered
 trademark of Gaussian, Inc.
  
 This software contains proprietary and confidential information,
 including trade secrets, belonging to Gaussian, Inc.
  
 This software is provided under written license and may be
 used, copied, transmitted, or stored only in accord with that
 written license.
  
 The following legend is applicable only to US Government
 contracts under FAR:
  
                    RESTRICTED RIGHTS LEGEND
  
 Use, reproduction and disclosure by the US Government is
 subject to restrictions as set forth in subparagraphs (a)
 and (c) of the Commercial Computer Software - Restricted
 Rights clause in FAR 52.227-19.
  
 Gaussian, Inc.
 340 Quinnipiac St., Bldg. 40, Wallingford CT 06492
  
  
 ---------------------------------------------------------------
 Warning -- This program may not be used in any manner that
 competes with the business of Gaussian, Inc. or will provide
 assistance to any competitor of Gaussian, Inc.  The licensee
 of this program is prohibited from giving any competitor of
 Gaussian, Inc. access to this program.  By using this program,
 the user acknowledges that Gaussian, Inc. is engaged in the
 business of creating and licensing software in the field of
 computational chemistry and represents and warrants to the
 licensee that it is not a competitor of Gaussian, Inc. and that
 it will not use this program in any manner prohibited above.
 ---------------------------------------------------------------
  

 Cite this work as:
 Gaussian 09, Revision D.01,
 M. J. Frisch, G. W. Trucks, H. B. Schlegel, G. E. Scuseria, 
 M. A. Robb, J. R. Cheeseman, G. Scalmani, V. Barone, B. Mennucci, 
 G. A. Petersson, H. Nakatsuji, M. Caricato, X. Li, H. P. Hratchian, 
 A. F. Izmaylov, J. Bloino, G. Zheng, J. L. Sonnenberg, M. Hada, 
 M. Ehara, K. Toyota, R. Fukuda, J. Hasegawa, M. Ishida, T. Nakajima, 
 Y. Honda, O. Kitao, H. Nakai, T. Vreven, J. A. Montgomery, Jr., 
 J. E. Peralta, F. Ogliaro, M. Bearpark, J. J. Heyd, E. Brothers, 
 K. N. Kudin, V. N. Staroverov, T. Keith, R. Kobayashi, J. Normand, 
 K. Raghavachari, A. Rendell, J. C. Burant, S. S. Iyengar, J. Tomasi, 
 M. Cossi, N. Rega, J. M. Millam, M. Klene, J. E. Knox, J. B. Cross, 
 V. Bakken, C. Adamo, J. Jaramillo, R. Gomperts, R. E. Stratmann, 
 O. Yazyev, A. J. Austin, R. Cammi, C. Pomelli, J. W. Ochterski, 
 R. L. Martin, K. Morokuma, V. G. Zakrzewski, G. A. Voth, 
 P. Salvador, J. J. Dannenberg, S. Dapprich, A. D. Daniels, 
 O. Farkas, J. B. Foresman, J. V. Ortiz, J. Cioslowski, 
 and D. J. Fox, Gaussian, Inc., Wallingford CT, 2013.
 
 ******************************************
 Gaussian 09:  EM64L-G09RevD.01 24-Apr-2013
                18-Aug-2021 
 ******************************************
 %mem=15gb
 %nproc=8
 Will use up to    8 processors via shared memory.
 ------------------------------------------------------------
 #b3lyp/gen pseudo=read opt freq=noraman scrf=(solvent=water)
 ------------------------------------------------------------
 1/14=-1,18=20,19=15,26=3,38=1/1,3;
 2/9=110,12=2,17=6,18=5,40=1/2;
 3/5=7,11=2,16=1,17=8,25=1,30=1,70=2201,71=1,72=1,74=-5/1,2,3;
 4//1;
 5/5=2,38=5,53=1/2;
 6/7=2,8=2,9=2,10=2,28=1/1;
 7//1,2,3,16;
 1/14=-1,18=20,19=15,26=3/3(2);
 2/9=110/2;
 99//99;
 2/9=110/2;
 3/5=7,6=1,11=2,16=1,17=8,25=1,30=1,70=2205,71=1,72=1,74=-5,82=7/1,2,3;
 4/5=5,16=3,69=1/1;
 5/5=2,38=5,53=1/2;
 7//1,2,3,16;
 1/14=-1,18=20,19=15,26=3/3(-5);
 2/9=110/2;
 6/7=2,8=2,9=2,10=2,19=2,28=1/1;
 99/9=1/99;
 ------------
 Estrutura 60
 ------------
 Symbolic Z-matrix:
 Charge = -2 Multiplicity = 1
 Pt                   -0.31955   0.33835   0. 
 N                    -0.31955  -1.65165   0. 
 O                     0.95213  -2.10499   0.1641 
 O                    -0.81328  -2.10499  -1.18335 
 N                     1.67045   0.33835   0. 
 O                     2.12378   1.35457  -0.7819 
 O                     2.12378   0.50738   1.27103 
 Cl                   -0.31955   0.33835   2.28 
 Cl                   -0.31955   0.33835  -1.99 
 N                    -0.31955   2.32835   0. 
 N                    -2.30955   0.33835   0. 
 O                    -2.76288  -0.04279   1.22426 
 O                    -2.76288   1.58916  -0.28206 
 O                     0.38494   2.78168   1.07135 
 O                     0.25602   2.78168  -1.14578 
 

 GradGradGradGradGradGradGradGradGradGradGradGradGradGradGradGradGradGrad
 Berny optimization.
 Initialization pass.
                           ----------------------------
                           !    Initial Parameters    !
                           ! (Angstroms and Degrees)  !
 --------------------------                            --------------------------
 ! Name  Definition              Value          Derivative Info.                !
 --------------------------------------------------------------------------------
 ! R1    R(1,2)                  1.99           estimate D2E/DX2                !
 ! R2    R(1,5)                  1.99           estimate D2E/DX2                !
 ! R3    R(1,8)                  2.28           estimate D2E/DX2                !
 ! R4    R(1,9)                  1.99           estimate D2E/DX2                !
 ! R5    R(1,10)                 1.99           estimate D2E/DX2                !
 ! R6    R(1,11)                 1.99           estimate D2E/DX2                !
 ! R7    R(2,3)                  1.36           estimate D2E/DX2                !
 ! R8    R(2,4)                  1.36           estimate D2E/DX2                !
 ! R9    R(5,6)                  1.36           estimate D2E/DX2                !
 ! R10   R(5,7)                  1.36           estimate D2E/DX2                !
 ! R11   R(10,14)                1.36           estimate D2E/DX2                !
 ! R12   R(10,15)                1.36           estimate D2E/DX2                !
 ! R13   R(11,12)                1.36           estimate D2E/DX2                !
 ! R14   R(11,13)                1.36           estimate D2E/DX2                !
 ! A1    A(2,1,5)               90.0            estimate D2E/DX2                !
 ! A2    A(2,1,8)               90.0            estimate D2E/DX2                !
 ! A3    A(2,1,9)               90.0            estimate D2E/DX2                !
 ! A4    A(2,1,11)              90.0            estimate D2E/DX2                !
 ! A5    A(5,1,8)               90.0            estimate D2E/DX2                !
 ! A6    A(5,1,9)               90.0            estimate D2E/DX2                !
 ! A7    A(5,1,10)              90.0            estimate D2E/DX2                !
 ! A8    A(8,1,10)              90.0            estimate D2E/DX2                !
 ! A9    A(8,1,11)              90.0            estimate D2E/DX2                !
 ! A10   A(9,1,10)              90.0            estimate D2E/DX2                !
 ! A11   A(9,1,11)              90.0            estimate D2E/DX2                !
 ! A12   A(10,1,11)             90.0            estimate D2E/DX2                !
 ! A13   A(1,2,3)              109.4712         estimate D2E/DX2                !
 ! A14   A(1,2,4)              109.4712         estimate D2E/DX2                !
 ! A15   A(3,2,4)              109.4713         estimate D2E/DX2                !
 ! A16   A(1,5,6)              109.4712         estimate D2E/DX2                !
 ! A17   A(1,5,7)              109.4712         estimate D2E/DX2                !
 ! A18   A(6,5,7)              109.4713         estimate D2E/DX2                !
 ! A19   A(1,10,14)            109.4712         estimate D2E/DX2                !
 ! A20   A(1,10,15)            109.4712         estimate D2E/DX2                !
 ! A21   A(14,10,15)           109.4713         estimate D2E/DX2                !
 ! A22   A(1,11,12)            109.4712         estimate D2E/DX2                !
 ! A23   A(1,11,13)            109.4712         estimate D2E/DX2                !
 ! A24   A(12,11,13)           109.4713         estimate D2E/DX2                !
 ! A25   L(2,1,10,5,-1)        180.0            estimate D2E/DX2                !
 ! A26   L(5,1,11,2,-1)        180.0            estimate D2E/DX2                !
 ! A27   L(8,1,9,2,-1)         180.0            estimate D2E/DX2                !
 ! A28   L(2,1,10,5,-2)        180.0            estimate D2E/DX2                !
 ! A29   L(5,1,11,2,-2)        180.0            estimate D2E/DX2                !
 ! A30   L(8,1,9,2,-2)         180.0            estimate D2E/DX2                !
 ! D1    D(5,1,2,3)              7.3528         estimate D2E/DX2                !
 ! D2    D(5,1,2,4)           -112.6472         estimate D2E/DX2                !
 ! D3    D(8,1,2,3)            -82.6472         estimate D2E/DX2                !
 ! D4    D(8,1,2,4)            157.3528         estimate D2E/DX2                !
 ! D5    D(9,1,2,3)             97.3528         estimate D2E/DX2                !
 ! D6    D(9,1,2,4)            -22.6472         estimate D2E/DX2                !
 ! D7    D(11,1,2,3)          -172.6472         estimate D2E/DX2                !
 ! D8    D(11,1,2,4)            67.3528         estimate D2E/DX2                !
 ! D9    D(3,2,10,14)          -49.3195         estimate D2E/DX2                !
 ! D10   D(3,2,10,15)           70.6805         estimate D2E/DX2                !
 ! D11   D(4,2,10,14)         -169.3195         estimate D2E/DX2                !
 ! D12   D(4,2,10,15)          -49.3195         estimate D2E/DX2                !
 ! D13   D(2,1,5,6)            142.4248         estimate D2E/DX2                !
 ! D14   D(2,1,5,7)            -97.5752         estimate D2E/DX2                !
 ! D15   D(8,1,5,6)           -127.5752         estimate D2E/DX2                !
 ! D16   D(8,1,5,7)             -7.5752         estimate D2E/DX2                !
 ! D17   D(9,1,5,6)             52.4248         estimate D2E/DX2                !
 ! D18   D(9,1,5,7)            172.4248         estimate D2E/DX2                !
 ! D19   D(10,1,5,6)           -37.5752         estimate D2E/DX2                !
 ! D20   D(10,1,5,7)            82.4248         estimate D2E/DX2                !
 ! D21   D(6,5,11,12)         -144.8676         estimate D2E/DX2                !
 ! D22   D(6,5,11,13)          -24.8676         estimate D2E/DX2                !
 ! D23   D(7,5,11,12)          -24.8676         estimate D2E/DX2                !
 ! D24   D(7,5,11,13)           95.1324         estimate D2E/DX2                !
 ! D25   D(5,1,10,14)          -56.6723         estimate D2E/DX2                !
 ! D26   D(5,1,10,15)           63.3277         estimate D2E/DX2                !
 ! D27   D(8,1,10,14)           33.3277         estimate D2E/DX2                !
 ! D28   D(8,1,10,15)          153.3277         estimate D2E/DX2                !
 ! D29   D(9,1,10,14)         -146.6723         estimate D2E/DX2                !
 ! D30   D(9,1,10,15)          -26.6723         estimate D2E/DX2                !
 ! D31   D(11,1,10,14)         123.3277         estimate D2E/DX2                !
 ! D32   D(11,1,10,15)        -116.6723         estimate D2E/DX2                !
 ! D33   D(2,1,11,12)           72.7076         estimate D2E/DX2                !
 ! D34   D(2,1,11,13)         -167.2924         estimate D2E/DX2                !
 ! D35   D(8,1,11,12)          -17.2924         estimate D2E/DX2                !
 ! D36   D(8,1,11,13)          102.7076         estimate D2E/DX2                !
 ! D37   D(9,1,11,12)          162.7076         estimate D2E/DX2                !
 ! D38   D(9,1,11,13)          -77.2924         estimate D2E/DX2                !
 ! D39   D(10,1,11,12)        -107.2924         estimate D2E/DX2                !
 ! D40   D(10,1,11,13)          12.7076         estimate D2E/DX2                !
 --------------------------------------------------------------------------------
 Trust Radius=3.00D-01 FncErr=1.00D-07 GrdErr=1.00D-06
 Number of steps in this run=     94 maximum allowed number of steps=    100.
 GradGradGradGradGradGradGradGradGradGradGradGradGradGradGradGradGradGrad

                          Input orientation:                          
 ---------------------------------------------------------------------
 Center     Atomic      Atomic             Coordinates (Angstroms)
 Number     Number       Type             X           Y           Z
 ---------------------------------------------------------------------
      1         78           0       -0.319549    0.338346    0.000000
      2          7           0       -0.319549   -1.651654    0.000000
      3          8           0        0.952128   -2.104987    0.164097
      4          8           0       -0.813275   -2.104987   -1.183353
      5          7           0        1.670451    0.338346    0.000000
      6          8           0        2.123784    1.354574   -0.781901
      7          8           0        2.123784    0.507377    1.271030
      8         17           0       -0.319549    0.338346    2.280000
      9         17           0       -0.319549    0.338346   -1.990000
     10          7           0       -0.319549    2.328346    0.000000
     11          7           0       -2.309549    0.338346    0.000000
     12          8           0       -2.762882   -0.042792    1.224264
     13          8           0       -2.762882    1.589159   -0.282057
     14          8           0        0.384937    2.781679    1.071349
     15          8           0        0.256023    2.781679   -1.145778
 ---------------------------------------------------------------------
                    Distance matrix (angstroms):
                    1          2          3          4          5
     1  Pt   0.000000
     2  N    1.990000   0.000000
     3  O    2.759341   1.360000   0.000000
     4  O    2.759341   1.360000   2.220871   0.000000
     5  N    1.990000   2.814285   2.552017   3.679551   0.000000
     6  O    2.759341   3.952044   3.773096   4.555880   1.360000
     7  O    2.759341   3.499544   3.069614   4.634087   1.360000
     8  Cl   2.280000   3.026301   3.473339   4.267136   3.026301
     9  Cl   1.990000   2.814285   3.496737   2.619985   2.814285
    10  N    1.990000   3.980000   4.615033   4.615033   2.814285
    11  N    1.990000   2.814285   4.078644   3.099844   3.980000
    12  O    2.759341   3.171299   4.379258   3.721590   4.615033
    13  O    2.759341   4.068452   5.258047   4.273174   4.615033
    14  O    2.759341   4.615033   5.002431   5.513519   2.961454
    15  O    2.759341   4.615033   5.106842   5.002431   3.046849
                    6          7          8          9         10
     6  O    0.000000
     7  O    2.220871   0.000000
     8  Cl   4.046954   2.648862   0.000000
     9  Cl   2.908969   4.078329   4.270000   0.000000
    10  N    2.743989   3.301715   3.026301   2.814285   0.000000
    11  N    4.615033   4.615033   3.026301   2.814285   2.814285
    12  O    5.464141   4.917761   2.688814   4.055445   3.618148
    13  O    4.917761   5.240404   3.754803   3.232874   2.568235
    14  O    2.914576   2.869827   2.815495   3.979703   1.360000
    15  O    2.378564   3.808141   4.247012   2.648371   1.360000
                   11         12         13         14         15
    11  N    0.000000
    12  O    1.360000   0.000000
    13  O    1.360000   2.220871   0.000000
    14  O    3.791823   4.231995   3.628027   0.000000
    15  O    3.723552   4.765346   3.358854   2.220871   0.000000
 Stoichiometry    Cl2N4O8Pt(2-)
 Framework group  C1[X(Cl2N4O8Pt)]
 Deg. of freedom    39
 Full point group                 C1      NOp   1
 Largest Abelian subgroup         C1      NOp   1
 Largest concise Abelian subgroup C1      NOp   1
                         Standard orientation:                         
 ---------------------------------------------------------------------
 Center     Atomic      Atomic             Coordinates (Angstroms)
 Number     Number       Type             X           Y           Z
 ---------------------------------------------------------------------
      1         78           0       -0.115714   -0.002864   -0.031763
      2          7           0       -1.551585   -1.346872    0.271580
      3          8           0       -0.992389   -2.537759    0.616092
      4          8           0       -2.277539   -1.499784   -0.868249
      5          7           0        1.258660   -1.430950    0.146470
      6          8           0        2.266767   -1.202780   -0.737419
      7          8           0        1.755868   -1.426165    1.412314
      8         17           0       -0.004220    0.384510    2.212320
      9         17           0       -0.213027   -0.340968   -1.990415
     10          7           0        1.320157    1.341144   -0.335106
     11          7           0       -1.490089    1.425221   -0.209996
     12          8           0       -2.018318    1.701138    1.012478
     13          8           0       -0.914456    2.547400   -0.718878
     14          8           0        2.186193    1.323778    0.713360
     15          8           0        1.988739    1.039599   -1.480387
 ---------------------------------------------------------------------
 Rotational constants (GHZ):      0.5336674      0.5033858      0.4718587
 General basis read from cards:  (5D, 7F)
 ======================================================================================================
                                       Pseudopotential Parameters
 ======================================================================================================
  Center     Atomic      Valence      Angular      Power
  Number     Number     Electrons     Momentum     of R      Exponent        Coefficient   SO-Coeffient
 ======================================================================================================
    1         78           18
                                      G and up 
                                                     1      728.9394056       -0.16192680    0.00000000
                                                     2      320.6567800    -1320.28738520    0.00000000
                                                     2       52.8680174     -298.31781350    0.00000000
                                                     2       12.0280128      -87.58370650    0.00000000
                                                     2        3.5238913       -8.14932740    0.00000000
                                      S - G
                                                     0      409.4437358        2.73342180    0.00000000
                                                     1      274.5419231       59.70243290    0.00000000
                                                     2      127.5658570      891.45895500    0.00000000
                                                     2       32.9036631      368.44676560    0.00000000
                                                     2        5.0593880      238.02630900    0.00000000
                                                     2        4.1506556     -107.05564540    0.00000000
                                      P - G
                                                     0      466.1728892        1.88785680    0.00000000
                                                     1      120.7888259       76.01386290    0.00000000
                                                     2       36.4118791      343.55111160    0.00000000
                                                     2        5.6985408      119.49117860    0.00000000
                                      D - G
                                                     0      249.5650763        2.93436780    0.00000000
                                                     1      126.6678585       59.33065710    0.00000000
                                                     2       63.1430586      452.44451940    0.00000000
                                                     2       17.9059470      210.47694790    0.00000000
                                                     2        4.2239373       58.62541120    0.00000000
                                      F - G
                                                     0      121.8158799        3.95342530    0.00000000
                                                     1       60.8757030       53.85551820    0.00000000
                                                     2       31.4767147      247.43051330    0.00000000
                                                     2        9.8811751      127.81879760    0.00000000
                                                     2        2.7319874       15.37720460    0.00000000
    2          7
                                   No pseudopotential on this center.
    3          8
                                   No pseudopotential on this center.
    4          8
                                   No pseudopotential on this center.
    5          7
                                   No pseudopotential on this center.
    6          8
                                   No pseudopotential on this center.
    7          8
                                   No pseudopotential on this center.
    8         17
                                   No pseudopotential on this center.
    9         17
                                   No pseudopotential on this center.
   10          7
                                   No pseudopotential on this center.
   11          7
                                   No pseudopotential on this center.
   12          8
                                   No pseudopotential on this center.
   13          8
                                   No pseudopotential on this center.
   14          8
                                   No pseudopotential on this center.
   15          8
                                   No pseudopotential on this center.
 ======================================================================================================
 There are   242 symmetry adapted cartesian basis functions of A   symmetry.
 There are   226 symmetry adapted basis functions of A   symmetry.
   226 basis functions,   417 primitive gaussians,   242 cartesian basis functions
    73 alpha electrons       73 beta electrons
       nuclear repulsion energy      1743.0210227922 Hartrees.
 NAtoms=   15 NActive=   15 NUniq=   15 SFac= 1.00D+00 NAtFMM=   60 NAOKFM=F Big=F
 Integral buffers will be    131072 words long.
 Raffenetti 2 integral format.
 Two-electron integral symmetry is turned on.
 ------------------------------------------------------------------------------
 Polarizable Continuum Model (PCM)
 =================================
 Model                : PCM (using non-symmetric T matrix).
 Atomic radii         : UFF (Universal Force Field).
 Polarization charges : Total charges.
 Charge compensation  : None.
 Solution method      : On-the-fly selection.
 Cavity type          : Scaled VdW (van der Waals Surface) (Alpha=1.100).
 Cavity algorithm     : GePol (No added spheres)
                        Default sphere list used, NSphG=   15.
                        Lebedev-Laikov grids with approx.  5.0 points / Ang**2.
                        Smoothing algorithm: Karplus/York (Gamma=1.0000).
                        Polarization charges: spherical gaussians, with
                                              point-specific exponents (IZeta= 3).
                        Self-potential: point-specific (ISelfS= 7).
                        Self-field    : sphere-specific E.n sum rule (ISelfD= 2).
 1st derivatives      : Analytical E(r).r(x)/FMM algorithm (CHGder, D1EAlg=3).
                        Cavity 1st derivative terms included.
 Solvent              : Water, Eps=  78.355300 Eps(inf)=   1.777849
 ------------------------------------------------------------------------------
 Spheres list:
 ISph  on   Nord     Re0    Alpha      Xe            Ye            Ze
    1  Pt      1    1.3770  1.100     -0.115714     -0.002864     -0.031763
    2   N      2    1.8300  1.100     -1.551585     -1.346872      0.271580
    3   O      3    1.7500  1.100     -0.992389     -2.537759      0.616092
    4   O      4    1.7500  1.100     -2.277539     -1.499784     -0.868249
    5   N      5    1.8300  1.100      1.258660     -1.430950      0.146470
    6   O      6    1.7500  1.100      2.266767     -1.202780     -0.737419
    7   O      7    1.7500  1.100      1.755868     -1.426165      1.412314
    8  Cl      8    1.9735  1.100     -0.004220      0.384510      2.212320
    9  Cl      9    1.9735  1.100     -0.213027     -0.340968     -1.990415
   10   N     10    1.8300  1.100      1.320157      1.341144     -0.335106
   11   N     11    1.8300  1.100     -1.490089      1.425221     -0.209996
   12   O     12    1.7500  1.100     -2.018318      1.701138      1.012478
   13   O     13    1.7500  1.100     -0.914456      2.547400     -0.718878
   14   O     14    1.7500  1.100      2.186193      1.323778      0.713360
   15   O     15    1.7500  1.100      1.988739      1.039599     -1.480387
 ------------------------------------------------------------------------------
 One-electron integrals computed using PRISM.
   1 Symmetry operations used in ECPInt.
 ECPInt:  NShTT=    4656 NPrTT=   19519 LenC2=    4424 LenP2D=   13177.
 LDataN:  DoStor=T MaxTD1= 6 Len=  172
 NBasis=   226 RedAO= T EigKep=  2.34D-03  NBF=   226
 NBsUse=   226 1.00D-06 EigRej= -1.00D+00 NBFU=   226
 Defaulting to unpruned grid for atomic number  78.
 ExpMin= 2.90D-02 ExpMax= 1.04D+04 ExpMxC= 1.57D+03 IAcc=3 IRadAn=         5 AccDes= 0.00D+00
 Harris functional with IExCor=  402 and IRadAn=       5 diagonalized for initial guess.
 HarFok:  IExCor=  402 AccDes= 0.00D+00 IRadAn=         5 IDoV= 1 UseB2=F ITyADJ=14
 ICtDFT=  3500011 ScaDFX=  1.000000  1.000000  1.000000  1.000000
 Defaulting to unpruned grid for atomic number  78.
 Defaulting to unpruned grid for atomic number  78.
 Defaulting to unpruned grid for atomic number  78.
 Defaulting to unpruned grid for atomic number  78.
 Defaulting to unpruned grid for atomic number  78.
 Defaulting to unpruned grid for atomic number  78.
 Defaulting to unpruned grid for atomic number  78.
 Defaulting to unpruned grid for atomic number  78.
 FoFCou: FMM=F IPFlag=           0 FMFlag=      100000 FMFlg1=           0
         NFxFlg=           0 DoJE=T BraDBF=F KetDBF=T FulRan=T
         wScrn=  0.000000 ICntrl=     500 IOpCl=  0 I1Cent=   200000004 NGrid=           0
         NMat0=    1 NMatS0=      1 NMatT0=    0 NMatD0=    1 NMtDS0=    0 NMtDT0=    0
 Petite list used in FoFCou.
 Keep R1 ints in memory in canonical form, NReq=336372040.
 Requested convergence on RMS density matrix=1.00D-08 within 128 cycles.
 Requested convergence on MAX density matrix=1.00D-06.
 Requested convergence on             energy=1.00D-06.
 No special actions if energy rises.
 Defaulting to unpruned grid for atomic number  78.
 Defaulting to unpruned grid for atomic number  78.
 Defaulting to unpruned grid for atomic number  78.
 Defaulting to unpruned grid for atomic number  78.
 Defaulting to unpruned grid for atomic number  78.
 Defaulting to unpruned grid for atomic number  78.
 Defaulting to unpruned grid for atomic number  78.
 Defaulting to unpruned grid for atomic number  78.
 Inv3:  Mode=1 IEnd=     8118075.
 Iteration    1 A*A^-1 deviation from unit magnitude is 6.66D-15 for   1353.
 Iteration    1 A*A^-1 deviation from orthogonality  is 4.17D-15 for   1052    487.
 Iteration    1 A^-1*A deviation from unit magnitude is 7.11D-15 for    219.
 Iteration    1 A^-1*A deviation from orthogonality  is 5.09D-12 for   1180   1179.
 EnCoef did   100 forward-backward iterations
 EnCoef did   100 forward-backward iterations
 EnCoef did     3 forward-backward iterations
 EnCoef did     2 forward-backward iterations
 EnCoef did     3 forward-backward iterations
 EnCoef did     1 forward-backward iterations
 EnCoef did     4 forward-backward iterations
 Error on total polarization charges =  0.00881
 SCF Done:  E(RB3LYP) =  -1859.08195621     A.U. after   27 cycles
            NFock= 27  Conv=0.47D-08     -V/T= 2.0500

 **********************************************************************

            Population analysis using the SCF density.

 **********************************************************************

 Orbital symmetries:
       Occupied  (A) (A) (A) (A) (A) (A) (A) (A) (A) (A) (A) (A)
                 (A) (A) (A) (A) (A) (A) (A) (A) (A) (A) (A) (A)
                 (A) (A) (A) (A) (A) (A) (A) (A) (A) (A) (A) (A)
                 (A) (A) (A) (A) (A) (A) (A) (A) (A) (A) (A) (A)
                 (A) (A) (A) (A) (A) (A) (A) (A) (A) (A) (A) (A)
                 (A) (A) (A) (A) (A) (A) (A) (A) (A) (A) (A) (A)
                 (A)
       Virtual   (A) (A) (A) (A) (A) (A) (A) (A) (A) (A) (A) (A)
                 (A) (A) (A) (A) (A) (A) (A) (A) (A) (A) (A) (A)
                 (A) (A) (A) (A) (A) (A) (A) (A) (A) (A) (A) (A)
                 (A) (A) (A) (A) (A) (A) (A) (A) (A) (A) (A) (A)
                 (A) (A) (A) (A) (A) (A) (A) (A) (A) (A) (A) (A)
                 (A) (A) (A) (A) (A) (A) (A) (A) (A) (A) (A) (A)
                 (A) (A) (A) (A) (A) (A) (A) (A) (A) (A) (A) (A)
                 (A) (A) (A) (A) (A) (A) (A) (A) (A) (A) (A) (A)
                 (A) (A) (A) (A) (A) (A) (A) (A) (A) (A) (A) (A)
                 (A) (A) (A) (A) (A) (A) (A) (A) (A) (A) (A) (A)
                 (A) (A) (A) (A) (A) (A) (A) (A) (A) (A) (A) (A)
                 (A) (A) (A) (A) (A) (A) (A) (A) (A) (A) (A) (A)
                 (A) (A) (A) (A) (A) (A) (A) (A) (A)
 The electronic state is 1-A.
 Alpha  occ. eigenvalues -- -101.46259-101.43472 -19.15614 -19.15584 -19.15300
 Alpha  occ. eigenvalues --  -19.14996 -19.14898 -19.14834 -19.14694 -19.14584
 Alpha  occ. eigenvalues --  -14.49976 -14.49942 -14.49918 -14.49773  -9.42345
 Alpha  occ. eigenvalues --   -9.38965  -7.19175  -7.18190  -7.18151  -7.15692
 Alpha  occ. eigenvalues --   -7.14961  -7.14921  -4.06030  -2.28005  -2.27523
 Alpha  occ. eigenvalues --   -2.27479  -1.10673  -1.09709  -1.09649  -1.09079
 Alpha  occ. eigenvalues --   -0.94209  -0.93909  -0.93729  -0.93115  -0.82316
 Alpha  occ. eigenvalues --   -0.75172  -0.68531  -0.67962  -0.64578  -0.63517
 Alpha  occ. eigenvalues --   -0.52463  -0.51777  -0.50552  -0.49326  -0.49117
 Alpha  occ. eigenvalues --   -0.48183  -0.47696  -0.46682  -0.46520  -0.45786
 Alpha  occ. eigenvalues --   -0.45488  -0.44820  -0.43079  -0.40438  -0.40302
 Alpha  occ. eigenvalues --   -0.36217  -0.32517  -0.31304  -0.30195  -0.29635
 Alpha  occ. eigenvalues --   -0.29132  -0.28389  -0.27596  -0.27340  -0.26800
 Alpha  occ. eigenvalues --   -0.26547  -0.26272  -0.26084  -0.25531  -0.25219
 Alpha  occ. eigenvalues --   -0.24522  -0.22764  -0.22012
 Alpha virt. eigenvalues --   -0.15230  -0.15018  -0.10035  -0.09695  -0.03303
 Alpha virt. eigenvalues --    0.00616   0.05519   0.06357   0.06472   0.17132
 Alpha virt. eigenvalues --    0.17888   0.18600   0.18925   0.19838   0.20038
 Alpha virt. eigenvalues --    0.20416   0.20555   0.21302   0.32293   0.32616
 Alpha virt. eigenvalues --    0.38172   0.44515   0.47237   0.47946   0.50043
 Alpha virt. eigenvalues --    0.52521   0.59971   0.65085   0.67545   0.69921
 Alpha virt. eigenvalues --    0.70828   0.71500   0.71935   0.72868   0.75127
 Alpha virt. eigenvalues --    0.75624   0.76378   0.77052   0.77658   0.79539
 Alpha virt. eigenvalues --    0.82536   0.83614   0.84155   0.87097   0.87965
 Alpha virt. eigenvalues --    0.88417   0.89187   0.89757   0.90549   0.91792
 Alpha virt. eigenvalues --    0.92643   0.94370   0.94723   0.96434   0.97352
 Alpha virt. eigenvalues --    0.98517   0.99241   1.00183   1.01046   1.02845
 Alpha virt. eigenvalues --    1.03642   1.05631   1.06394   1.07749   1.09546
 Alpha virt. eigenvalues --    1.11966   1.12378   1.12921   1.13659   1.14864
 Alpha virt. eigenvalues --    1.16585   1.17727   1.19270   1.20383   1.21448
 Alpha virt. eigenvalues --    1.23824   1.24873   1.27070   1.27320   1.30478
 Alpha virt. eigenvalues --    1.32344   1.33508   1.34234   1.36862   1.40744
 Alpha virt. eigenvalues --    1.44536   1.48621   1.49365   1.52081   1.53739
 Alpha virt. eigenvalues --    1.57991   1.61700   1.86754   1.88189   1.93005
 Alpha virt. eigenvalues --    1.94946   1.97038   2.01402   2.01922   2.07777
 Alpha virt. eigenvalues --    2.08615   2.14460   2.16033   2.24147   2.29534
 Alpha virt. eigenvalues --    2.29577   2.32139   2.33379   2.33869   2.34677
 Alpha virt. eigenvalues --    2.35710   2.36508   2.64111   2.64350   2.65623
 Alpha virt. eigenvalues --    2.65733   2.65913   2.66154   2.66455   2.66915
 Alpha virt. eigenvalues --    2.67263   2.67958   2.68282   2.68954   2.70125
 Alpha virt. eigenvalues --    2.71037   2.71364   2.74580   2.75093   2.76745
 Alpha virt. eigenvalues --    2.77829   2.78987   2.95915   2.97950   2.98077
 Alpha virt. eigenvalues --    3.00477   3.01313   3.01544   3.01864   3.02101
 Alpha virt. eigenvalues --    3.21882   3.22640   3.22961   3.24516   3.47735
 Alpha virt. eigenvalues --    3.49499   3.50256   3.52943   3.67100   3.69532
 Alpha virt. eigenvalues --    3.72328   3.73170   7.88746
          Condensed to atoms (all electrons):
               1          2          3          4          5          6
     1  Pt  17.426839   0.031528   0.007065  -0.000889   0.018681  -0.011782
     2  N    0.031528   6.657236   0.174677   0.174902   0.002542   0.000127
     3  O    0.007065   0.174677   8.212462  -0.090425  -0.018598   0.000182
     4  O   -0.000889   0.174902  -0.090425   8.196431   0.000014   0.000006
     5  N    0.018681   0.002542  -0.018598   0.000014   6.665466   0.179523
     6  O   -0.011782   0.000127   0.000182   0.000006   0.179523   8.196433
     7  O   -0.005019  -0.000818  -0.000336   0.000000   0.173148  -0.092211
     8  Cl   0.269376  -0.003708  -0.000410   0.000166  -0.007885   0.000296
     9  Cl  -0.102105  -0.057577   0.000202  -0.019442  -0.037136  -0.007258
    10  N    0.011987  -0.005661   0.000121   0.000110  -0.011096  -0.014730
    11  N    0.024527  -0.001410   0.000051  -0.002023  -0.005761   0.000116
    12  O   -0.002136  -0.002231   0.000021  -0.000106   0.000101   0.000000
    13  O    0.005373   0.000067   0.000001   0.000037   0.000124  -0.000003
    14  O   -0.000880   0.000105  -0.000001   0.000000  -0.005140   0.002431
    15  O   -0.010718   0.000087   0.000000   0.000000  -0.003577  -0.002334
               7          8          9         10         11         12
     1  Pt  -0.005019   0.269376  -0.102105   0.011987   0.024527  -0.002136
     2  N   -0.000818  -0.003708  -0.057577  -0.005661  -0.001410  -0.002231
     3  O   -0.000336  -0.000410   0.000202   0.000121   0.000051   0.000021
     4  O    0.000000   0.000166  -0.019442   0.000110  -0.002023  -0.000106
     5  N    0.173148  -0.007885  -0.037136  -0.011096  -0.005761   0.000101
     6  O   -0.092211   0.000296  -0.007258  -0.014730   0.000116   0.000000
     7  O    8.191098  -0.026844   0.000675  -0.000589   0.000089   0.000000
     8  Cl  -0.026844  16.956703  -0.006164  -0.001649  -0.013536  -0.016424
     9  Cl   0.000675  -0.006164  17.659908  -0.049852  -0.029685   0.000560
    10  N   -0.000589  -0.001649  -0.049852   6.667479   0.002821  -0.000324
    11  N    0.000089  -0.013536  -0.029685   0.002821   6.646083   0.176138
    12  O    0.000000  -0.016424   0.000560  -0.000324   0.176138   8.180494
    13  O    0.000000   0.000913  -0.003190  -0.018015   0.175806  -0.090426
    14  O   -0.000958  -0.016556   0.000532   0.178701  -0.000181   0.000019
    15  O    0.000153   0.000132  -0.032652   0.186595   0.000066  -0.000002
              13         14         15
     1  Pt   0.005373  -0.000880  -0.010718
     2  N    0.000067   0.000105   0.000087
     3  O    0.000001  -0.000001   0.000000
     4  O    0.000037   0.000000   0.000000
     5  N    0.000124  -0.005140  -0.003577
     6  O   -0.000003   0.002431  -0.002334
     7  O    0.000000  -0.000958   0.000153
     8  Cl   0.000913  -0.016556   0.000132
     9  Cl  -0.003190   0.000532  -0.032652
    10  N   -0.018015   0.178701   0.186595
    11  N    0.175806  -0.000181   0.000066
    12  O   -0.090426   0.000019  -0.000002
    13  O    8.211496   0.000006  -0.000245
    14  O    0.000006   8.194635  -0.095979
    15  O   -0.000245  -0.095979   8.188788
 Mulliken charges:
               1
     1  Pt   0.338154
     2  N    0.030132
     3  O   -0.285012
     4  O   -0.258781
     5  N    0.049592
     6  O   -0.250797
     7  O   -0.238391
     8  Cl  -0.134408
     9  Cl  -0.316816
    10  N    0.054102
    11  N    0.026900
    12  O   -0.245682
    13  O   -0.281944
    14  O   -0.256735
    15  O   -0.230316
 Sum of Mulliken charges =  -2.00000
 Mulliken charges with hydrogens summed into heavy atoms:
               1
     1  Pt   0.338154
     2  N    0.030132
     3  O   -0.285012
     4  O   -0.258781
     5  N    0.049592
     6  O   -0.250797
     7  O   -0.238391
     8  Cl  -0.134408
     9  Cl  -0.316816
    10  N    0.054102
    11  N    0.026900
    12  O   -0.245682
    13  O   -0.281944
    14  O   -0.256735
    15  O   -0.230316
 Electronic spatial extent (au):  <R**2>=           3007.1049
 Charge=             -2.0000 electrons
 Dipole moment (field-independent basis, Debye):
    X=             -2.0466    Y=             -0.0618    Z=             -1.5355  Tot=              2.5594
 Quadrupole moment (field-independent basis, Debye-Ang):
   XX=           -151.8434   YY=           -148.0082   ZZ=           -142.0792
   XY=             -0.1399   XZ=             -0.0944   YZ=              0.5111
 Traceless Quadrupole moment (field-independent basis, Debye-Ang):
   XX=             -4.5331   YY=             -0.6979   ZZ=              5.2310
   XY=             -0.1399   XZ=             -0.0944   YZ=              0.5111
 Octapole moment (field-independent basis, Debye-Ang**2):
  XXX=            -32.8700  YYY=             -1.2039  ZZZ=            -12.9650  XYY=             16.5614
  XXY=              2.5172  XXZ=              1.6244  XZZ=             -9.0247  YZZ=             -2.0978
  YYZ=             -5.7653  XYZ=              9.3884
 Hexadecapole moment (field-independent basis, Debye-Ang**3):
 XXXX=          -1496.7154 YYYY=          -1369.7049 ZZZZ=          -1132.8739 XXXY=             -7.8327
 XXXZ=              1.4482 YYYX=              2.1136 YYYZ=             22.1472 ZZZX=              3.4651
 ZZZY=              3.3508 XXYY=           -501.6789 XXZZ=           -446.0477 YYZZ=           -415.9111
 XXYZ=            -20.4231 YYXZ=             -4.3927 ZZXY=              3.2505
 N-N= 1.743021022792D+03 E-N=-7.895740360211D+03  KE= 1.770556342437D+03
   1 Symmetry operations used in ECPInt.
 ECPInt:  NShTT=    4656 NPrTT=   19519 LenC2=    4424 LenP2D=   13177.
 LDataN:  DoStor=T MaxTD1= 7 Len=  274
 D1PCM: PCM CHGder 1st derivatives, ID1Alg=3 FixD1E=F DoIter=F DoCFld=F I1PDM=0.
 Calling FoFJK, ICntrl=      2127 FMM=F ISym2X=0 I1Cent= 0 IOpClX= 0 NMat=1 NMatS=1 NMatT=0.
 Defaulting to unpruned grid for atomic number  78.
 Defaulting to unpruned grid for atomic number  78.
 Defaulting to unpruned grid for atomic number  78.
 Defaulting to unpruned grid for atomic number  78.
 Defaulting to unpruned grid for atomic number  78.
 Defaulting to unpruned grid for atomic number  78.
 Defaulting to unpruned grid for atomic number  78.
 Defaulting to unpruned grid for atomic number  78.
 ***** Axes restored to original set *****
 -------------------------------------------------------------------
 Center     Atomic                   Forces (Hartrees/Bohr)
 Number     Number              X              Y              Z
 -------------------------------------------------------------------
      1       78          -0.048018135   -0.055359835    0.164729468
      2        7           0.104714979   -0.100524388   -0.132679136
      3        8          -0.089820630    0.021680216    0.020778200
      4        8          -0.000870367    0.021430717    0.100143208
      5        7           0.110366368    0.170630519    0.082161251
      6        8          -0.014158035   -0.095237737    0.027542678
      7        8          -0.012855849   -0.052045266   -0.098136578
      8       17          -0.008189719   -0.005235674    0.062077229
      9       17          -0.003104547   -0.007598745   -0.235929505
     10        7           0.184706561    0.114708154   -0.018522833
     11        7          -0.106614817    0.113891015    0.133831950
     12        8           0.021781055   -0.008242470   -0.104864063
     13        8           0.021915863   -0.090335168   -0.014477523
     14        8          -0.081090612   -0.017852523   -0.062838628
     15        8          -0.078762112   -0.009908815    0.076184281
 -------------------------------------------------------------------
 Cartesian Forces:  Max     0.235929505 RMS     0.088706908

 GradGradGradGradGradGradGradGradGradGradGradGradGradGradGradGradGradGrad
 Berny optimization.
 FormGI is forming the generalized inverse of G from B-inverse, IUseBI=4.
 Internal  Forces:  Max     0.235927576 RMS     0.045996540
 Search for a local minimum.
 Step number   1 out of a maximum of   94
 All quantities printed in internal units (Hartrees-Bohrs-Radians)
 Mixed Optimization -- RFO/linear search
 Second derivative matrix not updated -- first step.
 ITU=  0
     Eigenvalues ---    0.00230   0.00230   0.00230   0.00230   0.03392
     Eigenvalues ---    0.03398   0.03419   0.03424   0.06381   0.06382
     Eigenvalues ---    0.06756   0.06756   0.12110   0.12167   0.12615
     Eigenvalues ---    0.12615   0.20378   0.20378   0.20378   0.20378
     Eigenvalues ---    0.22001   0.25000   0.25000   0.25000   0.25000
     Eigenvalues ---    0.25000   0.25000   0.25000   0.25000   0.25000
     Eigenvalues ---    0.52948   0.52948   0.52948   0.52948   0.52948
     Eigenvalues ---    0.52948   0.52948   0.52948   0.57823
 RFO step:  Lambda=-2.73429694D-01 EMin= 2.30000000D-03
 Linear search not attempted -- first point.
 Maximum step size (   0.300) exceeded in Quadratic search.
    -- Step size scaled by   0.501
 Iteration  1 RMS(Cart)=  0.06072363 RMS(Int)=  0.00149729
 Iteration  2 RMS(Cart)=  0.00186240 RMS(Int)=  0.00062840
 Iteration  3 RMS(Cart)=  0.00000457 RMS(Int)=  0.00062839
 Iteration  4 RMS(Cart)=  0.00000001 RMS(Int)=  0.00062839
 Variable       Old X    -DE/DX   Delta X   Delta X   Delta X     New X
                                 (Linear)    (Quad)   (Total)
    R1        3.76056   0.05742   0.00000   0.06033   0.06033   3.82088
    R2        3.76056   0.08335   0.00000   0.08758   0.08758   3.84813
    R3        4.30858   0.06208   0.00000   0.06308   0.06308   4.37165
    R4        3.76056   0.23593   0.00000   0.13889   0.13889   3.89945
    R5        3.76056   0.08695   0.00000   0.09135   0.09135   3.85191
    R6        3.76056   0.06291   0.00000   0.06610   0.06610   3.82665
    R7        2.57003  -0.08870   0.00000  -0.05539  -0.05539   2.51464
    R8        2.57003  -0.09398   0.00000  -0.05868  -0.05868   2.51134
    R9        2.57003  -0.09171   0.00000  -0.05727  -0.05727   2.51276
   R10        2.57003  -0.10248   0.00000  -0.06400  -0.06400   2.50603
   R11        2.57003  -0.09747   0.00000  -0.06086  -0.06086   2.50916
   R12        2.57003  -0.10082   0.00000  -0.06296  -0.06296   2.50707
   R13        2.57003  -0.09933   0.00000  -0.06203  -0.06203   2.50800
   R14        2.57003  -0.08739   0.00000  -0.05457  -0.05457   2.51545
    A1        1.57080  -0.00347   0.00000  -0.00316  -0.00316   1.56763
    A2        1.57080  -0.00417   0.00000  -0.00619  -0.00615   1.56465
    A3        1.57080  -0.00222   0.00000  -0.00321  -0.00320   1.56759
    A4        1.57080   0.01162   0.00000   0.01252   0.01260   1.58340
    A5        1.57080   0.00404   0.00000   0.00581   0.00580   1.57660
    A6        1.57080   0.00183   0.00000   0.00282   0.00284   1.57363
    A7        1.57080  -0.00353   0.00000  -0.00477  -0.00485   1.56594
    A8        1.57080   0.00294   0.00000   0.00411   0.00414   1.57493
    A9        1.57080  -0.00459   0.00000  -0.00628  -0.00624   1.56455
   A10        1.57080   0.00345   0.00000   0.00528   0.00529   1.57608
   A11        1.57080  -0.00128   0.00000  -0.00235  -0.00230   1.56849
   A12        1.57080  -0.00463   0.00000  -0.00459  -0.00459   1.56621
   A13        1.91063   0.02138   0.00000   0.02576   0.02507   1.93570
   A14        1.91063   0.02688   0.00000   0.03103   0.03034   1.94098
   A15        1.91063  -0.00023   0.00000   0.01036   0.00910   1.91973
   A16        1.91063   0.03714   0.00000   0.04189   0.04030   1.95094
   A17        1.91063   0.05054   0.00000   0.05473   0.05316   1.96379
   A18        1.91063  -0.01513   0.00000  -0.00187  -0.00463   1.90601
   A19        1.91063   0.03156   0.00000   0.03621   0.03470   1.94533
   A20        1.91063   0.05622   0.00000   0.05984   0.05835   1.96899
   A21        1.91063  -0.01671   0.00000  -0.00405  -0.00667   1.90396
   A22        1.91063   0.03065   0.00000   0.03479   0.03406   1.94470
   A23        1.91063   0.01948   0.00000   0.02409   0.02336   1.93399
   A24        1.91063  -0.00040   0.00000   0.01048   0.00916   1.91979
   A25        3.14159  -0.00699   0.00000  -0.00792  -0.00802   3.13358
   A26        3.14159   0.00815   0.00000   0.00936   0.00944   3.15103
   A27        3.14159  -0.00639   0.00000  -0.00940  -0.00935   3.13224
   A28        3.14159   0.00122   0.00000   0.00208   0.00206   3.14365
   A29        3.14159  -0.00055   0.00000  -0.00047  -0.00050   3.14109
   A30        3.14159  -0.00587   0.00000  -0.00863  -0.00866   3.13293
    D1        0.12833   0.01306   0.00000   0.02083   0.02102   0.14935
    D2       -1.96606  -0.01620   0.00000  -0.02663  -0.02682  -1.99288
    D3       -1.44247   0.00903   0.00000   0.01503   0.01520  -1.42727
    D4        2.74632  -0.02024   0.00000  -0.03244  -0.03264   2.71369
    D5        1.69913   0.01490   0.00000   0.02365   0.02386   1.72299
    D6       -0.39527  -0.01437   0.00000  -0.02381  -0.02397  -0.41924
    D7       -3.01326   0.01362   0.00000   0.02131   0.02152  -2.99174
    D8        1.17553  -0.01565   0.00000  -0.02616  -0.02632   1.14921
    D9       -0.86079  -0.00190   0.00000  -0.00345  -0.00353  -0.86432
   D10        1.23361   0.02928   0.00000   0.04803   0.04832   1.28193
   D11       -2.95518  -0.03016   0.00000  -0.04995  -0.05026  -3.00545
   D12       -0.86079   0.00101   0.00000   0.00153   0.00159  -0.85920
   D13        2.48578  -0.01593   0.00000  -0.02557  -0.02601   2.45977
   D14       -1.70301   0.01923   0.00000   0.03130   0.03172  -1.67128
   D15       -2.22661  -0.02010   0.00000  -0.03176  -0.03218  -2.25879
   D16       -0.13221   0.01506   0.00000   0.02511   0.02555  -0.10666
   D17        0.91499  -0.01371   0.00000  -0.02237  -0.02280   0.89219
   D18        3.00938   0.02145   0.00000   0.03451   0.03494   3.04432
   D19       -0.65581  -0.01716   0.00000  -0.02765  -0.02807  -0.68388
   D20        1.43858   0.01800   0.00000   0.02923   0.02966   1.46825
   D21       -2.52842  -0.03086   0.00000  -0.05109  -0.05137  -2.57978
   D22       -0.43402  -0.00247   0.00000  -0.00425  -0.00437  -0.43839
   D23       -0.43402   0.00193   0.00000   0.00308   0.00318  -0.43084
   D24        1.66037   0.03031   0.00000   0.04992   0.05018   1.71056
   D25       -0.98912  -0.01593   0.00000  -0.02544  -0.02583  -1.01495
   D26        1.10528   0.01736   0.00000   0.02843   0.02885   1.13412
   D27        0.58168  -0.01190   0.00000  -0.01963  -0.02005   0.56163
   D28        2.67607   0.02139   0.00000   0.03423   0.03463   2.71070
   D29       -2.55991  -0.01776   0.00000  -0.02826  -0.02864  -2.58855
   D30       -0.46552   0.01553   0.00000   0.02561   0.02604  -0.43948
   D31        2.15247  -0.01648   0.00000  -0.02591  -0.02631   2.12616
   D32       -2.03632   0.01680   0.00000   0.02795   0.02836  -2.00795
   D33        1.26899  -0.01729   0.00000  -0.02820  -0.02841   1.24058
   D34       -2.91980   0.01291   0.00000   0.02069   0.02091  -2.89890
   D35       -0.30181  -0.01312   0.00000  -0.02201  -0.02218  -0.32399
   D36        1.79259   0.01708   0.00000   0.02688   0.02714   1.81972
   D37        2.83978  -0.01951   0.00000  -0.03140  -0.03164   2.80814
   D38       -1.34901   0.01069   0.00000   0.01748   0.01767  -1.33133
   D39       -1.87261  -0.01606   0.00000  -0.02612  -0.02635  -1.89895
   D40        0.22179   0.01414   0.00000   0.02276   0.02297   0.24476
         Item               Value     Threshold  Converged?
 Maximum Force            0.235928     0.000450     NO 
 RMS     Force            0.045997     0.000300     NO 
 Maximum Displacement     0.216020     0.001800     NO 
 RMS     Displacement     0.059530     0.001200     NO 
 Predicted change in Energy=-1.194086D-01
 GradGradGradGradGradGradGradGradGradGradGradGradGradGradGradGradGradGrad

                          Input orientation:                          
 ---------------------------------------------------------------------
 Center     Atomic      Atomic             Coordinates (Angstroms)
 Number     Number       Type             X           Y           Z
 ---------------------------------------------------------------------
      1         78           0       -0.316433    0.340160    0.003498
      2          7           0       -0.305821   -1.681732   -0.000617
      3          8           0        0.926222   -2.150517    0.181153
      4          8           0       -0.812892   -2.162893   -1.130865
      5          7           0        1.719902    0.344411   -0.000198
      6          8           0        2.209873    1.305723   -0.777307
      7          8           0        2.229711    0.465896    1.217984
      8         17           0       -0.325612    0.321174    2.316782
      9         17           0       -0.326025    0.337699   -2.059978
     10          7           0       -0.310782    2.378476    0.011816
     11          7           0       -2.341351    0.355043    0.008231
     12          8           0       -2.826320   -0.044353    1.177283
     13          8           0       -2.806048    1.566909   -0.287267
     14          8           0        0.344537    2.858136    1.062299
     15          8           0        0.205815    2.895992   -1.095161
 ---------------------------------------------------------------------
                    Distance matrix (angstroms):
                    1          2          3          4          5
     1  Pt   0.000000
     2  N    2.021924   0.000000
     3  O    2.789126   1.330688   0.000000
     4  O    2.792583   1.328946   2.178546   0.000000
     5  N    2.036344   2.865103   2.624401   3.738988   0.000000
     6  O    2.814994   3.982066   3.809462   4.614478   1.329695
     7  O    2.823763   3.539240   3.101567   4.656721   1.326133
     8  Cl   2.313380   3.063064   3.498179   4.277183   3.090803
     9  Cl   2.063500   2.884351   3.575194   2.711688   2.903198
    10  N    2.038342   4.060231   4.697940   4.709763   2.874238
    11  N    2.024978   2.879568   4.121258   3.158121   4.061276
    12  O    2.797347   3.228215   4.416987   3.724198   4.712296
    13  O    2.790635   4.109377   5.288527   4.312280   4.696929
    14  O    2.810364   4.707777   5.118729   5.600030   3.056034
    15  O    2.830560   4.734486   5.255018   5.160557   3.162589
                    6          7          8          9         10
     6  O    0.000000
     7  O    2.164922   0.000000
     8  Cl   4.119636   2.785314   0.000000
     9  Cl   3.002181   4.158516   4.376791   0.000000
    10  N    2.850827   3.401016   3.089592   2.908150   0.000000
    11  N    4.715347   4.729735   3.064924   2.887790   2.866619
    12  O    5.568336   5.081875   2.772293   4.108200   3.681895
    13  O    5.046565   5.369998   3.805981   3.286941   2.640917
    14  O    3.045261   3.049742   2.908437   4.068276   1.327792
    15  O    2.578029   3.918183   4.307372   2.785424   1.326685
                   11         12         13         14         15
    11  N    0.000000
    12  O    1.327176   0.000000
    13  O    1.331120   2.177495   0.000000
    14  O    3.819755   4.300232   3.662620   0.000000
    15  O    3.763236   4.796194   3.389760   2.162247   0.000000
 Stoichiometry    Cl2N4O8Pt(2-)
 Framework group  C1[X(Cl2N4O8Pt)]
 Deg. of freedom    39
 Full point group                 C1      NOp   1
 Largest Abelian subgroup         C1      NOp   1
 Largest concise Abelian subgroup C1      NOp   1
                         Standard orientation:                         
 ---------------------------------------------------------------------
 Center     Atomic      Atomic             Coordinates (Angstroms)
 Number     Number       Type             X           Y           Z
 ---------------------------------------------------------------------
      1         78           0       -0.111650   -0.001767   -0.029549
      2          7           0       -1.560095   -1.395999    0.185631
      3          8           0       -1.037124   -2.580759    0.491533
      4          8           0       -2.298659   -1.495779   -0.914671
      5          7           0        1.302653   -1.461953    0.090036
      6          8           0        2.306353   -1.247083   -0.755249
      7          8           0        1.787335   -1.600281    1.316648
      8         17           0       -0.048366    0.266348    2.267370
      9         17           0       -0.194386   -0.241457   -2.077410
     10          7           0        1.360044    1.392542   -0.241345
     11          7           0       -1.504225    1.463458   -0.149479
     12          8           0       -2.085795    1.676736    1.024270
     13          8           0       -0.964470    2.592975   -0.601960
     14          8           0        2.197405    1.375343    0.788976
     15          8           0        2.050809    1.244891   -1.364348
 ---------------------------------------------------------------------
 Rotational constants (GHZ):      0.5138187      0.4882636      0.4509534
 Basis read from rwf:  (5D, 7F)
 Pseudo-potential data read from rwf file.
 There are   242 symmetry adapted cartesian basis functions of A   symmetry.
 There are   226 symmetry adapted basis functions of A   symmetry.
   226 basis functions,   417 primitive gaussians,   242 cartesian basis functions
    73 alpha electrons       73 beta electrons
       nuclear repulsion energy      1714.9549866576 Hartrees.
 NAtoms=   15 NActive=   15 NUniq=   15 SFac= 1.00D+00 NAtFMM=   60 NAOKFM=F Big=F
 Integral buffers will be    131072 words long.
 Raffenetti 2 integral format.
 Two-electron integral symmetry is turned on.
 ------------------------------------------------------------------------------
 Polarizable Continuum Model (PCM)
 =================================
 Model                : PCM (using non-symmetric T matrix).
 Atomic radii         : UFF (Universal Force Field).
 Polarization charges : Total charges.
 Charge compensation  : None.
 Solution method      : On-the-fly selection.
 Cavity type          : Scaled VdW (van der Waals Surface) (Alpha=1.100).
 Cavity algorithm     : GePol (No added spheres)
                        Default sphere list used, NSphG=   15.
                        Lebedev-Laikov grids with approx.  5.0 points / Ang**2.
                        Smoothing algorithm: Karplus/York (Gamma=1.0000).
                        Polarization charges: spherical gaussians, with
                                              point-specific exponents (IZeta= 3).
                        Self-potential: point-specific (ISelfS= 7).
                        Self-field    : sphere-specific E.n sum rule (ISelfD= 2).
 1st derivatives      : Analytical E(r).r(x)/FMM algorithm (CHGder, D1EAlg=3).
                        Cavity 1st derivative terms included.
 Solvent              : Water, Eps=  78.355300 Eps(inf)=   1.777849
 ------------------------------------------------------------------------------
 Spheres list:
 ISph  on   Nord     Re0    Alpha      Xe            Ye            Ze
    1  Pt      1    1.3770  1.100     -0.111650     -0.001767     -0.029549
    2   N      2    1.8300  1.100     -1.560095     -1.395999      0.185631
    3   O      3    1.7500  1.100     -1.037124     -2.580759      0.491533
    4   O      4    1.7500  1.100     -2.298659     -1.495779     -0.914671
    5   N      5    1.8300  1.100      1.302653     -1.461953      0.090036
    6   O      6    1.7500  1.100      2.306353     -1.247083     -0.755249
    7   O      7    1.7500  1.100      1.787335     -1.600281      1.316648
    8  Cl      8    1.9735  1.100     -0.048366      0.266348      2.267370
    9  Cl      9    1.9735  1.100     -0.194386     -0.241457     -2.077410
   10   N     10    1.8300  1.100      1.360044      1.392542     -0.241345
   11   N     11    1.8300  1.100     -1.504225      1.463458     -0.149479
   12   O     12    1.7500  1.100     -2.085795      1.676736      1.024270
   13   O     13    1.7500  1.100     -0.964470      2.592975     -0.601960
   14   O     14    1.7500  1.100      2.197405      1.375343      0.788976
   15   O     15    1.7500  1.100      2.050809      1.244891     -1.364348
 ------------------------------------------------------------------------------
 One-electron integrals computed using PRISM.
   1 Symmetry operations used in ECPInt.
 ECPInt:  NShTT=    4656 NPrTT=   19519 LenC2=    4419 LenP2D=   13112.
 LDataN:  DoStor=T MaxTD1= 6 Len=  172
 NBasis=   226 RedAO= T EigKep=  2.81D-03  NBF=   226
 NBsUse=   226 1.00D-06 EigRej= -1.00D+00 NBFU=   226
 Defaulting to unpruned grid for atomic number  78.
 Initial guess from the checkpoint file:  "/home/scr/diego/Gau-3350.chk"
 B after Tr=     0.000000    0.000000    0.000000
         Rot=    0.999633   -0.026208    0.006419   -0.002402 Ang=  -3.10 deg.
 ExpMin= 2.90D-02 ExpMax= 1.04D+04 ExpMxC= 1.57D+03 IAcc=3 IRadAn=         5 AccDes= 0.00D+00
 Harris functional with IExCor=  402 and IRadAn=       5 diagonalized for initial guess.
 HarFok:  IExCor=  402 AccDes= 0.00D+00 IRadAn=         5 IDoV= 1 UseB2=F ITyADJ=14
 ICtDFT=  3500011 ScaDFX=  1.000000  1.000000  1.000000  1.000000
 Defaulting to unpruned grid for atomic number  78.
 Defaulting to unpruned grid for atomic number  78.
 Defaulting to unpruned grid for atomic number  78.
 Defaulting to unpruned grid for atomic number  78.
 Defaulting to unpruned grid for atomic number  78.
 Defaulting to unpruned grid for atomic number  78.
 Defaulting to unpruned grid for atomic number  78.
 Defaulting to unpruned grid for atomic number  78.
 FoFCou: FMM=F IPFlag=           0 FMFlag=      100000 FMFlg1=           0
         NFxFlg=           0 DoJE=T BraDBF=F KetDBF=T FulRan=T
         wScrn=  0.000000 ICntrl=     500 IOpCl=  0 I1Cent=   200000004 NGrid=           0
         NMat0=    1 NMatS0=      1 NMatT0=    0 NMatD0=    1 NMtDS0=    0 NMtDT0=    0
 Petite list used in FoFCou.
 Keep R1 ints in memory in canonical form, NReq=336372040.
 Requested convergence on RMS density matrix=1.00D-08 within 128 cycles.
 Requested convergence on MAX density matrix=1.00D-06.
 Requested convergence on             energy=1.00D-06.
 No special actions if energy rises.
 Defaulting to unpruned grid for atomic number  78.
 Defaulting to unpruned grid for atomic number  78.
 Defaulting to unpruned grid for atomic number  78.
 Defaulting to unpruned grid for atomic number  78.
 Defaulting to unpruned grid for atomic number  78.
 Defaulting to unpruned grid for atomic number  78.
 Defaulting to unpruned grid for atomic number  78.
 Defaulting to unpruned grid for atomic number  78.
 Inv3:  Mode=1 IEnd=     8436987.
 Iteration    1 A*A^-1 deviation from unit magnitude is 7.33D-15 for   1191.
 Iteration    1 A*A^-1 deviation from orthogonality  is 3.56D-15 for   1243    988.
 Iteration    1 A^-1*A deviation from unit magnitude is 7.55D-15 for    176.
 Iteration    1 A^-1*A deviation from orthogonality  is 1.51D-14 for   1354   1339.
 Error on total polarization charges =  0.00838
 SCF Done:  E(RB3LYP) =  -1859.20256195     A.U. after   17 cycles
            NFock= 17  Conv=0.84D-08     -V/T= 2.0501
   1 Symmetry operations used in ECPInt.
 ECPInt:  NShTT=    4656 NPrTT=   19519 LenC2=    4419 LenP2D=   13112.
 LDataN:  DoStor=T MaxTD1= 7 Len=  274
 D1PCM: PCM CHGder 1st derivatives, ID1Alg=3 FixD1E=F DoIter=F DoCFld=F I1PDM=0.
 Calling FoFJK, ICntrl=      2127 FMM=F ISym2X=0 I1Cent= 0 IOpClX= 0 NMat=1 NMatS=1 NMatT=0.
 Defaulting to unpruned grid for atomic number  78.
 Defaulting to unpruned grid for atomic number  78.
 Defaulting to unpruned grid for atomic number  78.
 Defaulting to unpruned grid for atomic number  78.
 Defaulting to unpruned grid for atomic number  78.
 Defaulting to unpruned grid for atomic number  78.
 Defaulting to unpruned grid for atomic number  78.
 Defaulting to unpruned grid for atomic number  78.
 ***** Axes restored to original set *****
 -------------------------------------------------------------------
 Center     Atomic                   Forces (Hartrees/Bohr)
 Number     Number              X              Y              Z
 -------------------------------------------------------------------
      1       78          -0.037748272   -0.041403219    0.113232592
      2        7           0.098745175   -0.091573965   -0.127313013
      3        8          -0.078087446    0.024108782    0.026251084
      4        8          -0.007612879    0.023937790    0.089587697
      5        7           0.103846401    0.159489794    0.072895335
      6        8          -0.025995457   -0.084745583    0.013281821
      7        8          -0.025525484   -0.052206062   -0.076570595
      8       17          -0.004727759   -0.003895121    0.043249925
      9       17          -0.001414175   -0.002228835   -0.163426749
     10        7           0.172597281    0.104743274   -0.016285458
     11        7          -0.094331351    0.107232239    0.124449345
     12        8           0.024796784   -0.014556496   -0.090928522
     13        8           0.024667956   -0.077869039   -0.020397872
     14        8          -0.074537184   -0.026322542   -0.042555868
     15        8          -0.074673589   -0.024711018    0.054530277
 -------------------------------------------------------------------
 Cartesian Forces:  Max     0.172597281 RMS     0.076605316

 GradGradGradGradGradGradGradGradGradGradGradGradGradGradGradGradGradGrad
 Berny optimization.
 Using GEDIIS/GDIIS optimizer.
 FormGI is forming the generalized inverse of G from B-inverse, IUseBI=4.
 Internal  Forces:  Max     0.163431194 RMS     0.035402505
 Search for a local minimum.
 Step number   2 out of a maximum of   94
 All quantities printed in internal units (Hartrees-Bohrs-Radians)
 Mixed Optimization -- RFO/linear search
 Update second derivatives using D2CorX and points    1    2
 DE= -1.21D-01 DEPred=-1.19D-01 R= 1.01D+00
 TightC=F SS=  1.41D+00  RLast= 3.49D-01 DXNew= 5.0454D-01 1.0463D+00
 Trust test= 1.01D+00 RLast= 3.49D-01 DXMaxT set to 5.05D-01
 ITU=  1  0
 Use linear search instead of GDIIS.
 Linear search step of   0.598 exceeds DXMaxT=   0.505 but not scaled.
 Quartic linear search produced a step of  2.00000.
 Iteration  1 RMS(Cart)=  0.11295715 RMS(Int)=  0.01084371
 Iteration  2 RMS(Cart)=  0.01073975 RMS(Int)=  0.00341873
 Iteration  3 RMS(Cart)=  0.00006112 RMS(Int)=  0.00341841
 Iteration  4 RMS(Cart)=  0.00000053 RMS(Int)=  0.00341841
 Variable       Old X    -DE/DX   Delta X   Delta X   Delta X     New X
                                 (Linear)    (Quad)   (Total)
    R1        3.82088   0.04363   0.12066   0.00000   0.12066   3.94154
    R2        3.84813   0.05235   0.17515   0.00000   0.17515   4.02328
    R3        4.37165   0.04330   0.12616   0.00000   0.12616   4.49781
    R4        3.89945   0.16343   0.27779   0.00000   0.27779   4.17724
    R5        3.85191   0.05375   0.18270   0.00000   0.18270   4.03461
    R6        3.82665   0.04500   0.13220   0.00000   0.13220   3.95885
    R7        2.51464  -0.07720  -0.11078   0.00000  -0.11078   2.40385
    R8        2.51134  -0.08197  -0.11737   0.00000  -0.11737   2.39397
    R9        2.51276  -0.07858  -0.11454   0.00000  -0.11454   2.39822
   R10        2.50603  -0.08496  -0.12800   0.00000  -0.12800   2.37803
   R11        2.50916  -0.07997  -0.12173   0.00000  -0.12173   2.38743
   R12        2.50707  -0.08422  -0.12591   0.00000  -0.12591   2.38116
   R13        2.50800  -0.08474  -0.12406   0.00000  -0.12406   2.38394
   R14        2.51545  -0.07499  -0.10915   0.00000  -0.10915   2.40630
    A1        1.56763   0.00115  -0.00633   0.00000  -0.00636   1.56127
    A2        1.56465  -0.00320  -0.01230   0.00000  -0.01207   1.55258
    A3        1.56759   0.00033  -0.00641   0.00000  -0.00638   1.56122
    A4        1.58340   0.01235   0.02521   0.00000   0.02555   1.60895
    A5        1.57660   0.00170   0.01160   0.00000   0.01158   1.58817
    A6        1.57363   0.00115   0.00567   0.00000   0.00574   1.57937
    A7        1.56594  -0.01212  -0.00971   0.00000  -0.01006   1.55588
    A8        1.57493   0.00325   0.00827   0.00000   0.00841   1.58334
    A9        1.56455  -0.00250  -0.01249   0.00000  -0.01225   1.55231
   A10        1.57608  -0.00027   0.01057   0.00000   0.01060   1.58668
   A11        1.56849  -0.00020  -0.00460   0.00000  -0.00434   1.56415
   A12        1.56621  -0.00138  -0.00917   0.00000  -0.00913   1.55708
   A13        1.93570   0.01186   0.05014   0.00000   0.04572   1.98142
   A14        1.94098   0.01878   0.06069   0.00000   0.05633   1.99730
   A15        1.91973   0.00703   0.01820   0.00000   0.01135   1.93109
   A16        1.95094   0.01158   0.08061   0.00000   0.07084   2.02178
   A17        1.96379   0.02278   0.10631   0.00000   0.09675   2.06054
   A18        1.90601   0.00608  -0.00926   0.00000  -0.02312   1.88288
   A19        1.94533   0.01006   0.06939   0.00000   0.06005   2.00538
   A20        1.96899   0.02478   0.11671   0.00000   0.10772   2.07671
   A21        1.90396   0.00531  -0.01334   0.00000  -0.02658   1.87738
   A22        1.94470   0.02033   0.06813   0.00000   0.06354   2.00823
   A23        1.93399   0.00828   0.04672   0.00000   0.04202   1.97602
   A24        1.91979   0.00824   0.01831   0.00000   0.01113   1.93092
   A25        3.13358  -0.01097  -0.01603   0.00000  -0.01643   3.11715
   A26        3.15103   0.01350   0.01888   0.00000   0.01919   3.17022
   A27        3.13224  -0.00287  -0.01871   0.00000  -0.01844   3.11379
   A28        3.14365   0.00002   0.00412   0.00000   0.00404   3.14769
   A29        3.14109  -0.00091  -0.00101   0.00000  -0.00115   3.13994
   A30        3.13293  -0.00286  -0.01733   0.00000  -0.01755   3.11537
    D1        0.14935   0.01345   0.04203   0.00000   0.04298   0.19233
    D2       -1.99288  -0.01718  -0.05364   0.00000  -0.05456  -2.04744
    D3       -1.42727   0.01174   0.03039   0.00000   0.03125  -1.39602
    D4        2.71369  -0.01889  -0.06528   0.00000  -0.06629   2.64740
    D5        1.72299   0.01459   0.04772   0.00000   0.04880   1.77179
    D6       -0.41924  -0.01603  -0.04795   0.00000  -0.04873  -0.46798
    D7       -2.99174   0.01436   0.04304   0.00000   0.04413  -2.94761
    D8        1.14921  -0.01627  -0.05263   0.00000  -0.05341   1.09580
    D9       -0.86432  -0.00041  -0.00707   0.00000  -0.00722  -0.87154
   D10        1.28193   0.02860   0.09664   0.00000   0.09762   1.37955
   D11       -3.00545  -0.02869  -0.10053   0.00000  -0.10174  -3.10719
   D12       -0.85920   0.00032   0.00318   0.00000   0.00310  -0.85610
   D13        2.45977  -0.01560  -0.05202   0.00000  -0.05400   2.40578
   D14       -1.67128   0.01828   0.06345   0.00000   0.06536  -1.60593
   D15       -2.25879  -0.01880  -0.06436   0.00000  -0.06622  -2.32500
   D16       -0.10666   0.01509   0.05111   0.00000   0.05314  -0.05352
   D17        0.89219  -0.01592  -0.04559   0.00000  -0.04755   0.84464
   D18        3.04432   0.01796   0.06987   0.00000   0.07181   3.11612
   D19       -0.68388  -0.01562  -0.05614   0.00000  -0.05804  -0.74192
   D20        1.46825   0.01826   0.05933   0.00000   0.06132   1.52957
   D21       -2.57978  -0.02856  -0.10274   0.00000  -0.10364  -2.68342
   D22       -0.43839  -0.00122  -0.00873   0.00000  -0.00899  -0.44738
   D23       -0.43084   0.00057   0.00636   0.00000   0.00653  -0.42431
   D24        1.71056   0.02791   0.10037   0.00000   0.10118   1.81174
   D25       -1.01495  -0.01540  -0.05165   0.00000  -0.05341  -1.06836
   D26        1.13412   0.01766   0.05769   0.00000   0.05961   1.19374
   D27        0.56163  -0.01376  -0.04010   0.00000  -0.04200   0.51963
   D28        2.71070   0.01930   0.06925   0.00000   0.07102   2.78172
   D29       -2.58855  -0.01649  -0.05727   0.00000  -0.05894  -2.64750
   D30       -0.43948   0.01657   0.05207   0.00000   0.05408  -0.38540
   D31        2.12616  -0.01629  -0.05262   0.00000  -0.05441   2.07176
   D32       -2.00795   0.01678   0.05672   0.00000   0.05862  -1.94933
   D33        1.24058  -0.01753  -0.05682   0.00000  -0.05790   1.18267
   D34       -2.89890   0.01330   0.04181   0.00000   0.04291  -2.85599
   D35       -0.32399  -0.01422  -0.04436   0.00000  -0.04519  -0.36918
   D36        1.81972   0.01661   0.05427   0.00000   0.05562   1.87534
   D37        2.80814  -0.01723  -0.06329   0.00000  -0.06451   2.74363
   D38       -1.33133   0.01360   0.03535   0.00000   0.03630  -1.29503
   D39       -1.89895  -0.01749  -0.05269   0.00000  -0.05383  -1.95278
   D40        0.24476   0.01333   0.04594   0.00000   0.04699   0.29174
         Item               Value     Threshold  Converged?
 Maximum Force            0.163431     0.000450     NO 
 RMS     Force            0.035403     0.000300     NO 
 Maximum Displacement     0.380232     0.001800     NO 
 RMS     Displacement     0.111012     0.001200     NO 
 Predicted change in Energy=-1.437860D-01
 GradGradGradGradGradGradGradGradGradGradGradGradGradGradGradGradGradGrad

                          Input orientation:                          
 ---------------------------------------------------------------------
 Center     Atomic      Atomic             Coordinates (Angstroms)
 Number     Number       Type             X           Y           Z
 ---------------------------------------------------------------------
      1         78           0       -0.310306    0.343360    0.010055
      2          7           0       -0.276785   -1.742111   -0.001525
      3          8           0        0.877180   -2.232615    0.212760
      4          8           0       -0.802750   -2.269031   -1.026508
      5          7           0        1.818650    0.357351   -0.000894
      6          8           0        2.362255    1.211841   -0.765694
      7          8           0        2.416073    0.394173    1.106040
      8         17           0       -0.339047    0.286318    2.389338
      9         17           0       -0.340569    0.333969   -2.200217
     10          7           0       -0.292364    2.478167    0.034659
     11          7           0       -2.404681    0.389540    0.024612
     12          8           0       -2.941270   -0.036797    1.083745
     13          8           0       -2.883994    1.524944   -0.295648
     14          8           0        0.269162    2.993811    1.042090
     15          8           0        0.113222    3.097201   -0.985162
 ---------------------------------------------------------------------
                    Distance matrix (angstroms):
                    1          2          3          4          5
     1  Pt   0.000000
     2  N    2.085772   0.000000
     3  O    2.843740   1.272065   0.000000
     4  O    2.853340   1.266837   2.087888   0.000000
     5  N    2.129031   2.966242   2.764044   3.849871   0.000000
     6  O    2.915241   4.034144   3.876480   4.711874   1.269085
     7  O    2.938861   3.611356   3.172720   4.690548   1.258400
     8  Cl   2.380140   3.136021   3.544253   4.291018   3.220857
     9  Cl   2.210499   3.024636   3.727294   2.892544   3.082174
    10  N    2.135024   4.220462   4.857059   4.891059   2.992575
    11  N    2.094934   3.012069   4.204962   3.277047   4.223531
    12  O    2.866933   3.344456   4.490077   3.742900   4.897820
    13  O    2.848414   4.190190   5.340801   4.388619   4.854381
    14  O    2.902718   4.880179   5.326632   5.755485   3.231045
    15  O    2.958628   4.953644   5.515940   5.444003   3.374026
                    6          7          8          9         10
     6  O    0.000000
     7  O    2.043249   0.000000
     8  Cl   4.255333   3.041246   0.000000
     9  Cl   3.183358   4.305117   4.589803   0.000000
    10  N    3.048139   3.581413   3.217281   3.097512   0.000000
    11  N    4.901473   4.940564   3.141565   3.035376   2.970580
    12  O    5.753860   5.374696   2.929256   4.205415   3.800307
    13  O    5.276561   5.597685   3.901294   3.393348   2.781058
    14  O    3.290067   3.372156   3.084723   4.237817   1.263375
    15  O    2.942940   4.120996   4.415073   3.052497   1.260056
                   11         12         13         14         15
    11  N    0.000000
    12  O    1.261529   0.000000
    13  O    1.273361   2.084476   0.000000
    14  O    3.868711   4.415110   3.726863   0.000000
    15  O    3.832872   4.840687   3.454088   2.035868   0.000000
 Stoichiometry    Cl2N4O8Pt(2-)
 Framework group  C1[X(Cl2N4O8Pt)]
 Deg. of freedom    39
 Full point group                 C1      NOp   1
 Largest Abelian subgroup         C1      NOp   1
 Largest concise Abelian subgroup C1      NOp   1
                         Standard orientation:                         
 ---------------------------------------------------------------------
 Center     Atomic      Atomic             Coordinates (Angstroms)
 Number     Number       Type             X           Y           Z
 ---------------------------------------------------------------------
      1         78           0       -0.104025   -0.001124   -0.024035
      2          7           0       -1.583399   -1.466221    0.100020
      3          8           0       -1.132571   -2.619783    0.390184
      4          8           0       -2.347595   -1.526084   -0.908591
      5          7           0        1.381800   -1.524296    0.046982
      6          8           0        2.359357   -1.380993   -0.749525
      7          8           0        1.844061   -1.848338    1.171652
      8         17           0       -0.118714    0.153083    2.351060
      9         17           0       -0.174809   -0.146463   -2.228614
     10          7           0        1.446824    1.461955   -0.136277
     11          7           0       -1.522457    1.538976   -0.093984
     12          8           0       -2.180975    1.707680    0.968724
     13          8           0       -1.043037    2.644683   -0.505102
     14          8           0        2.227208    1.487166    0.856942
     15          8           0        2.154106    1.523449   -1.177290
 ---------------------------------------------------------------------
 Rotational constants (GHZ):      0.4777997      0.4621216      0.4153050
 Basis read from rwf:  (5D, 7F)
 Pseudo-potential data read from rwf file.
 There are   242 symmetry adapted cartesian basis functions of A   symmetry.
 There are   226 symmetry adapted basis functions of A   symmetry.
   226 basis functions,   417 primitive gaussians,   242 cartesian basis functions
    73 alpha electrons       73 beta electrons
       nuclear repulsion energy      1667.7134613957 Hartrees.
 NAtoms=   15 NActive=   15 NUniq=   15 SFac= 1.00D+00 NAtFMM=   60 NAOKFM=F Big=F
 Integral buffers will be    131072 words long.
 Raffenetti 2 integral format.
 Two-electron integral symmetry is turned on.
 ------------------------------------------------------------------------------
 Polarizable Continuum Model (PCM)
 =================================
 Model                : PCM (using non-symmetric T matrix).
 Atomic radii         : UFF (Universal Force Field).
 Polarization charges : Total charges.
 Charge compensation  : None.
 Solution method      : On-the-fly selection.
 Cavity type          : Scaled VdW (van der Waals Surface) (Alpha=1.100).
 Cavity algorithm     : GePol (No added spheres)
                        Default sphere list used, NSphG=   15.
                        Lebedev-Laikov grids with approx.  5.0 points / Ang**2.
                        Smoothing algorithm: Karplus/York (Gamma=1.0000).
                        Polarization charges: spherical gaussians, with
                                              point-specific exponents (IZeta= 3).
                        Self-potential: point-specific (ISelfS= 7).
                        Self-field    : sphere-specific E.n sum rule (ISelfD= 2).
 1st derivatives      : Analytical E(r).r(x)/FMM algorithm (CHGder, D1EAlg=3).
                        Cavity 1st derivative terms included.
 Solvent              : Water, Eps=  78.355300 Eps(inf)=   1.777849
 ------------------------------------------------------------------------------
 Spheres list:
 ISph  on   Nord     Re0    Alpha      Xe            Ye            Ze
    1  Pt      1    1.3770  1.100     -0.104025     -0.001124     -0.024035
    2   N      2    1.8300  1.100     -1.583399     -1.466221      0.100020
    3   O      3    1.7500  1.100     -1.132571     -2.619783      0.390184
    4   O      4    1.7500  1.100     -2.347595     -1.526084     -0.908591
    5   N      5    1.8300  1.100      1.381800     -1.524296      0.046982
    6   O      6    1.7500  1.100      2.359357     -1.380993     -0.749525
    7   O      7    1.7500  1.100      1.844061     -1.848338      1.171652
    8  Cl      8    1.9735  1.100     -0.118714      0.153083      2.351060
    9  Cl      9    1.9735  1.100     -0.174809     -0.146463     -2.228614
   10   N     10    1.8300  1.100      1.446824      1.461955     -0.136277
   11   N     11    1.8300  1.100     -1.522457      1.538976     -0.093984
   12   O     12    1.7500  1.100     -2.180975      1.707680      0.968724
   13   O     13    1.7500  1.100     -1.043037      2.644683     -0.505102
   14   O     14    1.7500  1.100      2.227208      1.487166      0.856942
   15   O     15    1.7500  1.100      2.154106      1.523449     -1.177290
 ------------------------------------------------------------------------------
 One-electron integrals computed using PRISM.
   1 Symmetry operations used in ECPInt.
 ECPInt:  NShTT=    4656 NPrTT=   19519 LenC2=    4375 LenP2D=   12962.
 LDataN:  DoStor=T MaxTD1= 6 Len=  172
 NBasis=   226 RedAO= T EigKep=  3.68D-03  NBF=   226
 NBsUse=   226 1.00D-06 EigRej= -1.00D+00 NBFU=   226
 Defaulting to unpruned grid for atomic number  78.
[...]
   A16        2.04567   0.00003   0.00000  -0.00024  -0.00024   2.04543
   A17        2.08588   0.00001   0.00000   0.00037   0.00037   2.08625
   A18        2.15120  -0.00004   0.00000  -0.00012  -0.00012   2.15108
   A19        2.04597  -0.00003   0.00000   0.00007   0.00007   2.04604
   A20        2.08582  -0.00001   0.00000  -0.00025  -0.00025   2.08557
   A21        2.15099   0.00004   0.00000   0.00017   0.00017   2.15116
   A22        2.05206   0.00002   0.00000   0.00055   0.00055   2.05261
   A23        2.07922  -0.00006   0.00000  -0.00072  -0.00072   2.07849
   A24        2.15190   0.00004   0.00000   0.00017   0.00017   2.15208
   A25        3.12179   0.00002   0.00000   0.00108   0.00108   3.12286
   A26        3.16122  -0.00002   0.00000   0.00075   0.00075   3.16197
   A27        3.12666   0.00001   0.00000  -0.00062  -0.00062   3.12604
   A28        3.13140   0.00002   0.00000   0.00019   0.00019   3.13159
   A29        3.13184   0.00000   0.00000   0.00029   0.00029   3.13214
   A30        3.12722   0.00000   0.00000   0.00079   0.00079   3.12801
    D1        0.69474  -0.00002   0.00000  -0.00683  -0.00683   0.68791
    D2       -2.44396  -0.00001   0.00000  -0.00677  -0.00677  -2.45073
    D3       -0.90485   0.00000   0.00000  -0.00608  -0.00608  -0.91093
    D4        2.23962   0.00000   0.00000  -0.00601  -0.00601   2.23361
    D5        2.25111   0.00000   0.00000  -0.00686  -0.00686   2.24425
    D6       -0.88759   0.00000   0.00000  -0.00680  -0.00680  -0.89439
    D7       -2.43710  -0.00001   0.00000  -0.00713  -0.00712  -2.44422
    D8        0.70738  -0.00001   0.00000  -0.00706  -0.00706   0.70032
    D9       -0.12497   0.00001   0.00000  -0.00660  -0.00660  -0.13157
   D10        2.97538   0.00000   0.00000  -0.00622  -0.00622   2.96915
   D11        3.03058   0.00000   0.00000  -0.00702  -0.00702   3.02356
   D12       -0.15226  -0.00001   0.00000  -0.00664  -0.00664  -0.15890
   D13        2.31281   0.00002   0.00000   0.00126   0.00126   2.31407
   D14       -0.85919   0.00002   0.00000   0.00130   0.00130  -0.85790
   D15       -2.37505  -0.00001   0.00000   0.00070   0.00070  -2.37435
   D16        0.73613   0.00000   0.00000   0.00074   0.00074   0.73687
   D17        0.78061  -0.00001   0.00000   0.00135   0.00135   0.78196
   D18       -2.39139  -0.00001   0.00000   0.00138   0.00138  -2.39001
   D19       -0.81859   0.00000   0.00000   0.00108   0.00108  -0.81751
   D20        2.29259   0.00000   0.00000   0.00111   0.00111   2.29370
   D21        3.02711  -0.00001   0.00000   0.00832   0.00832   3.03543
   D22       -0.12818   0.00000   0.00000   0.00842   0.00842  -0.11977
   D23       -0.15631   0.00000   0.00000   0.00816   0.00816  -0.14814
   D24        2.97158   0.00001   0.00000   0.00825   0.00825   2.97984
   D25       -0.81883   0.00002   0.00000   0.00021   0.00021  -0.81862
   D26        2.29312   0.00000   0.00000   0.00009   0.00009   2.29321
   D27        0.78042   0.00001   0.00000  -0.00056  -0.00056   0.77986
   D28       -2.39082  -0.00001   0.00000  -0.00069  -0.00068  -2.39150
   D29       -2.37525   0.00001   0.00000   0.00022   0.00022  -2.37503
   D30        0.73670  -0.00002   0.00000   0.00010   0.00010   0.73680
   D31        2.31280   0.00002   0.00000   0.00050   0.00050   2.31331
   D32       -0.85843   0.00000   0.00000   0.00038   0.00038  -0.85805
   D33        0.70410  -0.00002   0.00000   0.00687   0.00687   0.71097
   D34       -2.44034  -0.00002   0.00000   0.00714   0.00714  -2.43320
   D35       -0.89107   0.00001   0.00000   0.00745   0.00745  -0.88362
   D36        2.24768   0.00001   0.00000   0.00772   0.00772   2.25540
   D37        2.23616   0.00001   0.00000   0.00681   0.00681   2.24297
   D38       -0.90827   0.00001   0.00000   0.00707   0.00707  -0.90120
   D39       -2.44748   0.00000   0.00000   0.00704   0.00704  -2.44044
   D40        0.69127   0.00000   0.00000   0.00731   0.00731   0.69858
         Item               Value     Threshold  Converged?
 Maximum Force            0.000110     0.000450     YES
 RMS     Force            0.000029     0.000300     YES
 Maximum Displacement     0.014102     0.001800     NO 
 RMS     Displacement     0.003263     0.001200     NO 
 Predicted change in Energy=-2.949796D-07
 GradGradGradGradGradGradGradGradGradGradGradGradGradGradGradGradGradGrad

 1\1\GINC-NEQC17\Freq\RB3LYP\Gen\Cl2N4O8Pt1(2-)\DIEGO\18-Aug-2021\0\\#N
  Geom=AllCheck Guess=TCheck SCRF=Check GenChk RB3LYP/ChkBas Freq\\Estr
 utura 60\\-2,1\Pt,-0.1921993057,0.4656467529,0.0416026512\N,-0.2466180
 078,-1.6698705124,-0.0516897239\O,0.55488939,-2.3119064286,0.602958062
 1\O,-1.0884213976,-2.1828822645,-0.7699289945\N,1.9470386815,0.5354091
 918,0.0467135527\O,2.4819572078,1.3214564174,-0.7198467305\O,2.5680756
 192,-0.1706871226,0.8193610155\Cl,-0.2625177191,0.4174133087,2.4515287
 41\Cl,-0.1574424017,0.4788031348,-2.3699010868\N,-0.0953206359,2.60292
 1555,0.1132406208\N,-2.3303022881,0.4369524002,0.0591418046\O,-2.87792
 13171,-0.4244865975,0.7266931855\O,-2.939712623,1.271044413,-0.5859148
 814\O,0.6699407596,3.100621684,0.9244284408\O,-0.7666710022,3.25968689
 77,-0.660734777\\Version=EM64L-G09RevD.01\State=1-A\HF=-1859.5283479\R
 MSD=6.526e-09\RMSF=4.517e-05\ZeroPoint=0.0495922\Thermal=0.0676431\Dip
 ole=-0.0441558,-0.0448363,-0.0008845\DipoleDeriv=1.0594511,0.0971252,-
 0.2038559,0.0962593,1.0429823,0.2065298,-0.184788,0.1874472,1.1513668,
 1.360669,-0.0479011,0.9178013,-0.0217032,2.4976611,0.0328825,0.8572861
 ,0.0264903,1.1757657,-0.7594948,0.4091304,-0.3851681,0.4031844,-1.9084
 692,0.2882336,-0.3654444,0.3112505,-0.6297271,-0.8126713,-0.4134515,-0
 .4855071,-0.3795574,-1.7315793,-0.3492216,-0.4555007,-0.4182397,-0.714
 0491,2.4712728,0.0290294,0.0538827,0.0938883,1.1808416,-0.9376143,0.09
 51792,-0.8669024,1.3583644,-1.7471258,-0.3544473,0.3359373,-0.454037,-
 0.7493331,0.49084,0.381354,0.4307869,-0.7761694,-1.8692239,0.3478788,-
 0.3796196,0.2784152,-0.6466942,0.3886803,-0.461872,0.4245373,-0.764260
 4,-0.1697707,0.0049652,0.064507,0.0074815,-0.167559,0.0014423,0.050319
 1,0.0072543,-1.2245986,-0.168106,0.0080681,0.0351114,0.0056401,-0.1670
 918,-0.0277979,0.0288465,-0.0130809,-1.2261472,1.120492,0.0801442,0.93
 22235,0.0180094,2.4750721,-0.0271607,0.8588726,-0.0644836,1.4163669,2.
 4976788,-0.0065068,0.0020087,-0.0295519,1.428582,-0.9091888,0.0074908,
 -0.8478539,1.1077991,-1.76643,-0.3950301,0.3037389,-0.4328302,-0.83677
 86,0.4611226,0.3706783,0.4316169,-0.6541466,-1.8772557,0.4170363,-0.31
 22678,0.4220048,-0.7995691,0.3975951,-0.3346,0.3782595,-0.6224403,-0.7
 281214,-0.435762,-0.5089039,-0.3407215,-1.7117931,-0.3738418,-0.446147
 6,-0.4234701,-0.8350334,-0.6113641,0.2597211,-0.3698883,0.3335182,-1.9
 062717,0.357499,-0.4016737,0.4363876,-0.7630908\Polar=196.6437957,4.53
 35,197.6222858,14.8159227,-14.4477501,186.4091153\PG=C01 [X(Cl2N4O8Pt1
 )]\NImag=0\\0.24334884,0.00070648,0.24492117,0.02036583,-0.02512441,0.
 37322541,-0.04527269,-0.00087164,0.01204968,0.58879355,-0.00162918,-0.
 06811675,-0.00021093,-0.02505200,0.57916226,0.01125924,0.00004404,-0.0
 5437263,0.37385183,-0.01094208,0.45652068,0.00279347,0.00178591,-0.010
 55555,-0.26774135,0.17579355,-0.18103057,0.34511160,0.01941928,-0.0015
 8402,0.01570658,0.17898739,-0.28339085,0.14354838,-0.19385736,0.242089
 04,-0.00948499,0.00098169,0.00605965,-0.18268664,0.14128242,-0.1953700
 0,0.26849619,-0.15880739,0.23924491,0.00009759,-0.00144085,-0.01097575
 ,-0.28555885,-0.15002233,-0.20376027,-0.07895803,0.00115246,-0.0800566
 4,0.36528669,-0.01800070,-0.00008274,-0.01496484,-0.15393853,-0.230287
 14,-0.13336538,0.01656367,0.05363035,0.01521996,0.15155669,0.18881977,
 -0.01149776,-0.00081733,0.00440064,-0.20393606,-0.12965055,-0.22153062
 ,-0.07998882,0.00210579,-0.04950655,0.29079543,0.13215247,0.26820161,-
 0.06817884,0.00165573,0.00169552,-0.00002618,-0.02229179,0.00170969,-0
 .00482669,0.00668069,-0.00322569,0.00097706,0.00669164,0.00102873,0.57
 765252,-0.00150817,-0.04776597,-0.01167473,-0.00879271,-0.00082781,-0.
 00362991,0.00501453,0.00160948,0.00243069,0.00166612,-0.00036654,0.001
 32878,-0.00204762,0.51012309,-0.00151810,-0.01183135,-0.05128679,0.004
 78632,-0.00367250,0.00549113,-0.00588389,0.00083529,-0.00358538,-0.001
 49813,0.00085197,-0.00174356,0.03235755,-0.37812304,0.53350943,-0.0010
 4181,-0.01765984,0.01556355,-0.00037167,0.00669256,-0.00036457,0.00066
 359,-0.00250903,0.00085383,0.00001420,-0.00217572,-0.00037705,-0.23715
 185,-0.15020219,0.14095025,0.19660044,-0.00140986,0.00164532,0.0110618
 6,0.00151404,0.00124975,0.00100358,-0.00158564,-0.00080587,-0.00063710
 ,-0.00019362,-0.00004288,-0.00042370,-0.14677946,-0.25102028,0.1996527
 3,0.15030257,0.31126625,0.00074753,0.01094815,0.00328859,-0.00170820,-
 0.00051730,-0.00175300,0.00214450,0.00034322,0.00106374,0.00057631,0.0
 0022370,0.00083552,0.13611182,0.19917185,-0.24213393,-0.14150730,-0.28
 812078,0.30782606,-0.00059209,0.01654424,-0.01851484,0.00084471,0.0068
 3497,-0.00074070,0.00114297,-0.00417074,0.00236783,-0.00028742,-0.0022
 4300,-0.00020489,-0.27558201,0.15057204,-0.17084047,0.05402128,0.00016
 724,0.00217851,0.23366270,0.00196503,0.00545898,0.01046769,0.00597488,
 -0.00494909,0.00493730,-0.00757126,0.00015629,-0.00296422,-0.00209132,
 0.00073194,-0.00201190,0.14742926,-0.22078900,0.18971840,0.01417605,-0
 .06200271,0.08191978,-0.16340978,0.28054264,-0.00061353,0.01046147,0.0
 0245140,-0.00200007,0.00365269,-0.00261790,0.00412016,-0.00033531,0.00
 208256,0.00056814,-0.00100746,0.00067316,-0.16874764,0.19033243,-0.254
 20831,-0.01253034,0.08126051,-0.06720354,0.18109748,-0.27970108,0.3194
 7199,-0.01060868,0.00027210,0.00082418,-0.00094473,0.00055867,-0.00103
 813,0.00078784,0.00006981,0.00104491,0.00048348,-0.00002510,0.00040271
 ,-0.00482929,0.00280173,0.00049545,0.00070877,-0.00074380,0.00023507,0
 .00041033,-0.00100205,0.00386142,0.01415972,0.00018782,-0.01093686,0.0
 0250735,0.00305169,-0.00454493,-0.00178974,-0.00191340,0.00168299,-0.0
 0175354,-0.00061361,0.00078014,0.00022290,0.00052832,-0.00077710,0.001
 05180,-0.00008645,0.00040010,-0.00035202,0.00088465,0.00045323,-0.0012
 7407,0.00086299,0.01374203,0.00050238,0.00244967,-0.09726915,0.0003022
 7,-0.00039098,-0.00005043,0.00002709,-0.00011859,0.00075444,0.00012714
 ,-0.00044283,0.00004499,0.00023366,-0.00002529,0.00078880,0.00043419,-
 0.00010865,-0.00001711,0.00137416,-0.00030800,-0.00023359,-0.00139513,
 -0.00367896,0.10466567,-0.01088261,0.00019607,0.00050545,-0.00116968,-
 0.00071085,-0.00176957,0.00064408,0.00005360,0.00056406,0.00108124,-0.
 00093357,0.00166562,-0.00552054,-0.00392991,-0.00091815,0.00033108,0.0
 0179980,-0.00478330,0.00073498,0.00104244,-0.00027686,0.00327019,-0.00
 008917,0.00067051,0.01365545,0.00029294,-0.01068141,0.00218485,-0.0039
 5961,-0.00596245,0.00159487,0.00087695,0.00086832,-0.00001658,0.001706
 31,0.00084301,0.00390585,-0.00077859,-0.00100260,0.00177494,-0.0007438
 2,0.00099601,-0.00177222,0.00012035,0.00055060,-0.00054999,-0.00005723
 ,0.00330312,-0.00022392,0.00080000,0.01422797,0.00056958,0.00250137,-0
 .09711884,0.00062294,0.00182841,-0.00067248,0.00016022,0.00040469,0.00
 003426,-0.00036725,0.00078622,0.00098801,-0.00164937,-0.00064873,-0.00
 021886,-0.00151160,-0.00005360,-0.00036413,-0.00030973,-0.00018642,-0.
 00007201,0.00062301,-0.00027096,-0.00846857,0.00056174,-0.00183359,0.1
 0467843,-0.04855747,-0.00217148,0.01167976,0.02081617,-0.00051091,-0.0
 0379580,-0.00290839,-0.00254773,0.00160885,-0.00166009,0.00444540,0.00
 261799,-0.00194357,0.00802650,-0.00270443,-0.00247588,-0.00223662,0.00
 083216,-0.00083298,-0.00060864,0.00075656,-0.00102720,-0.00403227,0.00
 050059,-0.00070712,0.00277447,0.00006642,0.48417867,0.00103454,-0.0680
 6188,-0.00241593,-0.00125829,0.00711089,0.00005261,-0.00198745,0.00863
 148,-0.00167828,0.00263763,0.00692739,0.00245890,0.02464437,-0.0024033
 1,-0.00151074,-0.00759741,-0.00409630,0.00233237,-0.00746070,0.0011932
 2,-0.00165337,-0.00083055,-0.00554087,0.00143336,0.00051942,-0.0048388
 4,-0.00040721,-0.01291109,0.58033876,0.01197398,0.00067163,-0.05050238
 ,-0.00377858,-0.00043659,0.02038567,0.00202109,-0.00252641,-0.00289218
 ,0.00183115,0.00231713,-0.00273175,0.00242058,0.00297989,-0.00272234,-
 0.00095960,-0.00425197,0.00067599,-0.00106992,0.00019842,0.00058999,-0
 .00183349,0.00061482,-0.00017903,-0.00109739,-0.00055151,0.00073463,0.
 37610654,-0.03618513,0.55736517,-0.06810039,-0.00091293,-0.00044181,-0
 .00132230,0.02379345,0.00343447,0.00144757,-0.00748355,0.00044815,-0.0
 0493375,-0.00742672,-0.00242061,0.00710037,-0.00050624,-0.00002036,0.0
 0721406,0.00272172,-0.00221610,0.00821883,-0.00136411,0.00262977,-0.00
 587943,-0.00064519,-0.00203472,-0.00456297,0.00056585,0.00025114,-0.00
 143901,-0.02229408,0.00260437,0.57801758,-0.00015182,-0.04437919,-0.01
 169648,0.00950861,-0.00177435,0.00424213,-0.00106448,-0.00043821,-0.00
 141578,-0.00449693,-0.00163327,-0.00127864,-0.00119969,0.02057021,0.00
 373812,0.00307572,-0.00233472,-0.00196778,-0.00288334,-0.00305667,-0.0
 0203943,-0.00381939,-0.00114269,-0.00075960,0.00305049,-0.00103959,-0.
 00025264,-0.00871759,0.00064886,-0.00532316,-0.01231054,0.61752462,-0.
 00064241,-0.01092653,-0.05528557,-0.00385380,-0.00248469,-0.00351428,0
 .00053104,0.00062042,0.00124929,0.00526732,0.00057315,0.00093393,-0.00
 049486,0.00378940,0.02065675,-0.00292842,-0.00217746,-0.00239310,0.003
 08599,-0.00197217,-0.00246173,-0.00191302,0.00174414,-0.00075820,0.001
 76014,0.00099708,0.00003870,0.00305092,-0.00269485,0.00544673,0.010140
 31,-0.36862784,0.42900787,-0.00089107,-0.01894988,0.01422860,-0.001832
 02,-0.00752162,-0.00098084,-0.00008055,0.00307952,0.00033806,0.0021470
 5,0.00469113,0.00223117,0.00715160,0.00452330,-0.00181924,-0.00923283,
 -0.00443949,0.00360285,-0.01239787,0.00242773,-0.00424394,0.00107822,-
 0.00087442,-0.00076512,0.00076345,-0.00003094,0.00046680,-0.00019113,0
 .00676130,-0.00054717,-0.24325769,-0.16657165,0.12890580,0.20199683,-0
 .00182954,-0.00048042,0.01054228,-0.00437837,-0.00468579,-0.00561561,0
 .00093585,0.00093400,0.00164119,0.00795819,0.00203868,0.00071279,0.002
 66114,-0.00158335,-0.00166326,-0.00414368,-0.00134508,0.00177848,-0.00
 470788,0.00173117,-0.00147515,0.00180767,0.00111449,0.00043736,-0.0006
 0315,0.00051506,-0.00013587,0.00167400,0.00084035,0.00166617,-0.162496
 84,-0.29678106,0.19371601,0.16877303,0.38306502,0.00071274,0.01065145,
 0.00576752,0.00105435,0.00195112,0.00081832,0.00037407,-0.00105273,-0.
 00009015,-0.00028698,-0.00190309,-0.00152409,-0.00204090,-0.00239575,-
 0.00304521,0.00349713,0.00181926,-0.00073957,0.00375111,-0.00051488,0.
 00216758,-0.00379560,-0.00164781,0.00079055,-0.00023145,-0.00038755,0.
 00003370,-0.00122383,-0.00068146,-0.00177938,0.12533911,0.19380846,-0.
 19750499,-0.13179541,-0.27915163,0.23742574,-0.00068431,0.01967743,-0.
 01505519,-0.00056036,-0.00741652,-0.00094241,0.00000844,0.00302118,-0.
 00009887,0.00099436,0.00303908,0.00119214,0.00841646,-0.00272239,0.002
 80038,-0.01220001,-0.00460930,0.00417233,-0.01089284,0.00301600,-0.004
 14352,0.00089422,0.00008423,-0.00037840,0.00165516,0.00003075,0.000143
 73,0.00187541,0.00649738,-0.00032661,-0.26936341,0.17795744,-0.1373020
 5,0.05425221,-0.00330012,0.00232284,0.22677386,0.00147717,0.00175493,0
 .01064296,-0.00107540,0.00159437,-0.00056127,-0.00024015,-0.00003295,0
 .00005808,0.00100318,-0.00010893,-0.00034739,-0.00212956,-0.00271260,-
 0.00212240,0.00378159,0.00224296,-0.00112683,0.00398881,-0.00042596,0.
 00176793,0.00087558,0.00065394,-0.00009602,-0.00200866,0.00083777,-0.0
 0004566,0.00480253,-0.00530684,0.00600826,0.17473959,-0.28617528,0.185
 63973,0.01260600,-0.08520647,0.07916884,-0.18877118,0.37063018,-0.0010
 4301,0.01001533,0.00627287,0.00130909,-0.00070926,0.00123686,-0.000048
 58,0.00021625,-0.00042362,-0.00157473,-0.00021076,-0.00013537,0.001970
 38,-0.00171607,-0.00287452,-0.00290603,-0.00094436,0.00184251,-0.00331
 005,0.00115301,-0.00063246,0.00007825,-0.00053662,-0.00000463,0.001695
 86,-0.00103186,0.00076129,-0.00202324,0.00341321,-0.00334182,-0.135126
 52,0.18737469,-0.19093595,-0.01020004,0.07885792,-0.04391006,0.1480111
 6,-0.27238339,0.22926577,0.00218563,-0.00102948,-0.01133147,-0.0024130
 2,0.00268200,0.00230117,0.00215669,-0.00466924,0.00083783,-0.00131551,
 -0.00434000,-0.00203716,-0.00427878,-0.00229627,0.00400683,0.00279984,
 0.00518627,-0.00082725,0.00119024,0.00033253,-0.00077839,0.00095594,0.
 00162896,0.00015175,0.00037641,-0.00074137,0.00008672,-0.24081080,-0.1
 3494050,-0.20627540,0.00136590,0.00146244,-0.00083469,-0.00008257,-0.0
 0018756,0.00038955,-0.00087527,-0.00150692,0.00050231,0.29497208,-0.01
 672536,-0.00019673,-0.01611542,0.00301018,0.00695724,0.00331648,0.0034
 5585,-0.01212588,0.00255221,-0.00404233,-0.00887673,-0.00390965,-0.007
 48777,-0.00232244,0.00053628,0.00407178,0.00268243,-0.00161622,0.00295
 292,0.00008157,0.00020454,-0.00086351,0.00011664,0.00149581,-0.0000772
 9,0.00074200,-0.00041266,-0.13823928,-0.22392348,-0.14269219,0.0066318
 6,-0.00055909,0.00065031,-0.00218070,0.00005471,0.00026875,-0.00244948
 ,0.00082564,-0.00095644,0.13401260,0.18329499,-0.01155956,-0.00073316,
 0.00194010,0.00209286,0.00261282,-0.00205672,0.00120282,-0.00483109,0.
 00185899,-0.00197955,-0.00401918,-0.00113951,-0.00276515,-0.00097129,0
 .00073351,0.00186895,0.00108566,-0.00106092,0.00137682,-0.00044694,0.0
 0014084,0.00183081,0.00482983,-0.00004271,0.00036332,-0.00024594,-0.00
 002727,-0.20589439,-0.13774709,-0.26602032,0.00087223,0.00179787,-0.00
 167537,-0.00033788,-0.00060944,0.00082752,-0.00053029,-0.00220380,0.00
 095352,0.29451109,0.13826186,0.33787007,0.00638442,0.00219813,-0.01003
 797,-0.00324158,-0.00120001,0.00186647,-0.00024124,0.00277369,-0.00100
 687,0.00163197,0.00209573,0.00052856,0.00103975,-0.00059870,-0.0001940
 1,0.00012080,0.00030615,0.00044109,0.00035918,-0.00031674,0.00030077,0
 .00054063,0.00102585,0.00024963,0.00033088,-0.00085608,0.00028566,-0.2
 0431663,0.14718542,-0.18106956,-0.00450536,0.00616073,-0.00477226,0.00
 057637,-0.00216274,0.00193327,-0.00029392,-0.00754259,0.00266515,-0.05
 622678,0.01793055,-0.08105209,0.25784151,0.01617135,-0.00149441,0.0190
 8916,-0.00272024,0.00846465,-0.00283542,0.00379343,-0.01122416,0.00310
 667,-0.00477959,-0.01237306,-0.00444833,-0.00757666,-0.00073178,0.0007
 6375,0.00301786,0.00116503,-0.00124439,0.00281023,0.00032377,0.0003562
 9,0.00009308,0.00069576,0.00033665,0.00089078,0.00064103,-0.00127334,0
 .15025271,-0.29151943,0.17751063,0.00698773,0.00057043,0.00115331,-0.0
 0229333,-0.00021131,0.00006703,-0.00405449,0.00142926,-0.00254163,0.00
 440655,0.05324915,0.00321989,-0.16699940,0.25101506,-0.00977191,0.0007
 0798,0.00242919,0.00189401,-0.00231256,-0.00251461,-0.00156978,0.00389
 089,-0.00047996,0.00133381,0.00378894,0.00223358,0.00139569,-0.0008482
 3,0.00063929,-0.00008298,0.00083402,0.00013289,-0.00024130,-0.00028900
 ,-0.00014796,0.00057957,0.00033288,-0.00002103,0.00129003,-0.00384443,
 -0.00032686,-0.18157811,0.17528360,-0.25502897,-0.00345942,0.00240011,
 -0.00280407,0.00091636,-0.00070122,0.00076250,0.00013476,-0.00439904,0
 .00192560,-0.08070289,0.01841633,-0.07230173,0.26986218,-0.19326027,0.
 32550213\\0.00000197,-0.00003261,0.00012247,0.00002048,0.00001176,-0.0
 0000528,-0.00003236,0.00000869,0.00000602,0.00003045,-0.00001046,0.000
 01649,-0.00008220,-0.00002045,-0.00001563,0.00002455,0.00008026,-0.000
 06234,0.00002587,-0.00005028,0.00009821,-0.00001981,0.00002667,-0.0000
 0797,0.00002509,-0.00003685,-0.00005748,0.00008119,-0.00000860,-0.0000
 2358,-0.00003306,-0.00000452,0.00001285,0.00003593,0.00008450,-0.00007
 225,-0.00001237,-0.00005586,0.00002315,-0.00007991,0.00000759,-0.00004
 758,0.00001418,0.00000015,0.00001291\\\@


 IT'S WHAT YOU LEARN AFTER YOU KNOW IT ALL
 THAT COUNTS.
 Job cpu time:       0 days  0 hours 26 minutes  9.5 seconds.
 File lengths (MBytes):  RWF=    177 Int=      0 D2E=      0 Chk=      9 Scr=      1
 Normal termination of Gaussian 09 at Wed Aug 18 13:01:17 2021.
