 Entering Gaussian System, Link 0=g09
 Input=estrutura58_D2O.com
 Output=estrutura58_D2O.log
 Initial command:
 /home/scr/programs/g09/l1.exe "/home/scr/diego/Gau-27448.inp" -scrdir="/home/scr/diego/"
 Entering Link 1 = /home/scr/programs/g09/l1.exe PID=     27450.
  
 Copyright (c) 1988,1990,1992,1993,1995,1998,2003,2009,2013,
            Gaussian, Inc.  All Rights Reserved.
  
 This is part of the Gaussian(R) 09 program.  It is based on
 the Gaussian(R) 03 system (copyright 2003, Gaussian, Inc.),
 the Gaussian(R) 98 system (copyright 1998, Gaussian, Inc.),
 the Gaussian(R) 94 system (copyright 1995, Gaussian, Inc.),
 the Gaussian 92(TM) system (copyright 1992, Gaussian, Inc.),
 the Gaussian 90(TM) system (copyright 1990, Gaussian, Inc.),
 the Gaussian 88(TM) system (copyright 1988, Gaussian, Inc.),
 the Gaussian 86(TM) system (copyright 1986, Carnegie Mellon
 University), and the Gaussian 82(TM) system (copyright 1983,
 Carnegie Mellon University). Gaussian is a federally registered
 trademark of Gaussian, Inc.
  
 This software contains proprietary and confidential information,
 including trade secrets, belonging to Gaussian, Inc.
  
 This software is provided under written license and may be
 used, copied, transmitted, or stored only in accord with that
 written license.
  
 The following legend is applicable only to US Government
 contracts under FAR:
  
                    RESTRICTED RIGHTS LEGEND
  
 Use, reproduction and disclosure by the US Government is
 subject to restrictions as set forth in subparagraphs (a)
 and (c) of the Commercial Computer Software - Restricted
 Rights clause in FAR 52.227-19.
  
 Gaussian, Inc.
 340 Quinnipiac St., Bldg. 40, Wallingford CT 06492
  
  
 ---------------------------------------------------------------
 Warning -- This program may not be used in any manner that
 competes with the business of Gaussian, Inc. or will provide
 assistance to any competitor of Gaussian, Inc.  The licensee
 of this program is prohibited from giving any competitor of
 Gaussian, Inc. access to this program.  By using this program,
 the user acknowledges that Gaussian, Inc. is engaged in the
 business of creating and licensing software in the field of
 computational chemistry and represents and warrants to the
 licensee that it is not a competitor of Gaussian, Inc. and that
 it will not use this program in any manner prohibited above.
 ---------------------------------------------------------------
  

 Cite this work as:
 Gaussian 09, Revision D.01,
 M. J. Frisch, G. W. Trucks, H. B. Schlegel, G. E. Scuseria, 
 M. A. Robb, J. R. Cheeseman, G. Scalmani, V. Barone, B. Mennucci, 
 G. A. Petersson, H. Nakatsuji, M. Caricato, X. Li, H. P. Hratchian, 
 A. F. Izmaylov, J. Bloino, G. Zheng, J. L. Sonnenberg, M. Hada, 
 M. Ehara, K. Toyota, R. Fukuda, J. Hasegawa, M. Ishida, T. Nakajima, 
 Y. Honda, O. Kitao, H. Nakai, T. Vreven, J. A. Montgomery, Jr., 
 J. E. Peralta, F. Ogliaro, M. Bearpark, J. J. Heyd, E. Brothers, 
 K. N. Kudin, V. N. Staroverov, T. Keith, R. Kobayashi, J. Normand, 
 K. Raghavachari, A. Rendell, J. C. Burant, S. S. Iyengar, J. Tomasi, 
 M. Cossi, N. Rega, J. M. Millam, M. Klene, J. E. Knox, J. B. Cross, 
 V. Bakken, C. Adamo, J. Jaramillo, R. Gomperts, R. E. Stratmann, 
 O. Yazyev, A. J. Austin, R. Cammi, C. Pomelli, J. W. Ochterski, 
 R. L. Martin, K. Morokuma, V. G. Zakrzewski, G. A. Voth, 
 P. Salvador, J. J. Dannenberg, S. Dapprich, A. D. Daniels, 
 O. Farkas, J. B. Foresman, J. V. Ortiz, J. Cioslowski, 
 and D. J. Fox, Gaussian, Inc., Wallingford CT, 2013.
 
 ******************************************
 Gaussian 09:  EM64L-G09RevD.01 24-Apr-2013
                18-Aug-2021 
 ******************************************
 %mem=15gb
 %nproc=8
 Will use up to    8 processors via shared memory.
 ------------------------------------------------------------
 #b3lyp/gen pseudo=read opt freq=noraman scrf=(solvent=water)
 ------------------------------------------------------------
 1/14=-1,18=20,19=15,26=3,38=1/1,3;
 2/9=110,12=2,17=6,18=5,40=1/2;
 3/5=7,11=2,16=1,17=8,25=1,30=1,70=2201,71=1,72=1,74=-5/1,2,3;
 4//1;
 5/5=2,38=5,53=1/2;
 6/7=2,8=2,9=2,10=2,28=1/1;
 7//1,2,3,16;
 1/14=-1,18=20,19=15,26=3/3(2);
 2/9=110/2;
 99//99;
 2/9=110/2;
 3/5=7,6=1,11=2,16=1,17=8,25=1,30=1,70=2205,71=1,72=1,74=-5,82=7/1,2,3;
 4/5=5,16=3,69=1/1;
 5/5=2,38=5,53=1/2;
 7//1,2,3,16;
 1/14=-1,18=20,19=15,26=3/3(-5);
 2/9=110/2;
 6/7=2,8=2,9=2,10=2,19=2,28=1/1;
 99/9=1/99;
 ------------
 Estrutura 58
 ------------
 Symbolic Z-matrix:
 Charge = -2 Multiplicity = 1
 Pt                   -0.31955   0.33835   0. 
 N                    -0.31955  -1.65165   0. 
 O                     0.95213  -2.10499   0.1641 
 O                    -0.81328  -2.10499  -1.18335 
 N                    -0.31955   0.33835  -1.99 
 O                     0.64815  -0.50287  -2.44333 
 O                    -1.53191  -0.0791   -2.44333 
 Cl                   -2.59955   0.33835   0. 
 N                     1.67045   0.33835   0. 
 O                     2.12378   1.35457  -0.7819 
 O                     2.12378   0.50738   1.27103 
 Br                   -0.31955   2.76835   0. 
 Br                   -0.31955   0.33835   2.43 
 

 GradGradGradGradGradGradGradGradGradGradGradGradGradGradGradGradGradGrad
 Berny optimization.
 Initialization pass.
                           ----------------------------
                           !    Initial Parameters    !
                           ! (Angstroms and Degrees)  !
 --------------------------                            --------------------------
 ! Name  Definition              Value          Derivative Info.                !
 --------------------------------------------------------------------------------
 ! R1    R(1,2)                  1.99           estimate D2E/DX2                !
 ! R2    R(1,5)                  1.99           estimate D2E/DX2                !
 ! R3    R(1,8)                  2.28           estimate D2E/DX2                !
 ! R4    R(1,9)                  1.99           estimate D2E/DX2                !
 ! R5    R(1,12)                 2.43           estimate D2E/DX2                !
 ! R6    R(1,13)                 2.43           estimate D2E/DX2                !
 ! R7    R(2,3)                  1.36           estimate D2E/DX2                !
 ! R8    R(2,4)                  1.36           estimate D2E/DX2                !
 ! R9    R(5,6)                  1.36           estimate D2E/DX2                !
 ! R10   R(5,7)                  1.36           estimate D2E/DX2                !
 ! R11   R(9,10)                 1.36           estimate D2E/DX2                !
 ! R12   R(9,11)                 1.36           estimate D2E/DX2                !
 ! A1    A(2,1,5)               90.0            estimate D2E/DX2                !
 ! A2    A(2,1,8)               90.0            estimate D2E/DX2                !
 ! A3    A(2,1,9)               90.0            estimate D2E/DX2                !
 ! A4    A(2,1,13)              90.0            estimate D2E/DX2                !
 ! A5    A(5,1,8)               90.0            estimate D2E/DX2                !
 ! A6    A(5,1,9)               90.0            estimate D2E/DX2                !
 ! A7    A(5,1,12)              90.0            estimate D2E/DX2                !
 ! A8    A(8,1,12)              90.0            estimate D2E/DX2                !
 ! A9    A(8,1,13)              90.0            estimate D2E/DX2                !
 ! A10   A(9,1,12)              90.0            estimate D2E/DX2                !
 ! A11   A(9,1,13)              90.0            estimate D2E/DX2                !
 ! A12   A(12,1,13)             90.0            estimate D2E/DX2                !
 ! A13   A(1,2,3)              109.4712         estimate D2E/DX2                !
 ! A14   A(1,2,4)              109.4712         estimate D2E/DX2                !
 ! A15   A(3,2,4)              109.4713         estimate D2E/DX2                !
 ! A16   A(1,5,6)              109.4712         estimate D2E/DX2                !
 ! A17   A(1,5,7)              109.4712         estimate D2E/DX2                !
 ! A18   A(6,5,7)              109.4713         estimate D2E/DX2                !
 ! A19   A(1,9,10)             109.4712         estimate D2E/DX2                !
 ! A20   A(1,9,11)             109.4712         estimate D2E/DX2                !
 ! A21   A(10,9,11)            109.4713         estimate D2E/DX2                !
 ! A22   L(2,1,12,5,-1)        180.0            estimate D2E/DX2                !
 ! A23   L(5,1,13,2,-1)        180.0            estimate D2E/DX2                !
 ! A24   L(8,1,9,2,-1)         180.0            estimate D2E/DX2                !
 ! A25   L(2,1,12,5,-2)        180.0            estimate D2E/DX2                !
 ! A26   L(5,1,13,2,-2)        180.0            estimate D2E/DX2                !
 ! A27   L(8,1,9,2,-2)         180.0            estimate D2E/DX2                !
 ! D1    D(5,1,2,3)             97.3528         estimate D2E/DX2                !
 ! D2    D(5,1,2,4)            -22.6472         estimate D2E/DX2                !
 ! D3    D(8,1,2,3)           -172.6472         estimate D2E/DX2                !
 ! D4    D(8,1,2,4)             67.3528         estimate D2E/DX2                !
 ! D5    D(9,1,2,3)              7.3528         estimate D2E/DX2                !
 ! D6    D(9,1,2,4)           -112.6472         estimate D2E/DX2                !
 ! D7    D(13,1,2,3)           -82.6472         estimate D2E/DX2                !
 ! D8    D(13,1,2,4)           157.3528         estimate D2E/DX2                !
 ! D9    D(2,1,5,6)            -48.9998         estimate D2E/DX2                !
 ! D10   D(2,1,5,7)             71.0002         estimate D2E/DX2                !
 ! D11   D(8,1,5,6)           -138.9998         estimate D2E/DX2                !
 ! D12   D(8,1,5,7)            -18.9998         estimate D2E/DX2                !
 ! D13   D(9,1,5,6)             41.0002         estimate D2E/DX2                !
 ! D14   D(9,1,5,7)            161.0002         estimate D2E/DX2                !
 ! D15   D(12,1,5,6)           131.0002         estimate D2E/DX2                !
 ! D16   D(12,1,5,7)          -108.9998         estimate D2E/DX2                !
 ! D17   D(2,1,9,10)           142.4248         estimate D2E/DX2                !
 ! D18   D(2,1,9,11)           -97.5752         estimate D2E/DX2                !
 ! D19   D(5,1,9,10)            52.4248         estimate D2E/DX2                !
 ! D20   D(5,1,9,11)           172.4248         estimate D2E/DX2                !
 ! D21   D(12,1,9,10)          -37.5752         estimate D2E/DX2                !
 ! D22   D(12,1,9,11)           82.4248         estimate D2E/DX2                !
 ! D23   D(13,1,9,10)         -127.5752         estimate D2E/DX2                !
 ! D24   D(13,1,9,11)           -7.5752         estimate D2E/DX2                !
 --------------------------------------------------------------------------------
 Trust Radius=3.00D-01 FncErr=1.00D-07 GrdErr=1.00D-06
 Number of steps in this run=     73 maximum allowed number of steps=    100.
 GradGradGradGradGradGradGradGradGradGradGradGradGradGradGradGradGradGrad

                          Input orientation:                          
 ---------------------------------------------------------------------
 Center     Atomic      Atomic             Coordinates (Angstroms)
 Number     Number       Type             X           Y           Z
 ---------------------------------------------------------------------
      1         78           0       -0.319549    0.338346    0.000000
      2          7           0       -0.319549   -1.651654    0.000000
      3          8           0        0.952128   -2.104987    0.164097
      4          8           0       -0.813275   -2.104987   -1.183353
      5          7           0       -0.319549    0.338346   -1.990000
      6          8           0        0.648153   -0.502869   -2.443333
      7          8           0       -1.531913   -0.079100   -2.443333
      8         17           0       -2.599549    0.338346    0.000000
      9          7           0        1.670451    0.338346    0.000000
     10          8           0        2.123784    1.354574   -0.781901
     11          8           0        2.123784    0.507377    1.271030
     12         35           0       -0.319549    2.768346    0.000000
     13         35           0       -0.319549    0.338346    2.430000
 ---------------------------------------------------------------------
                    Distance matrix (angstroms):
                    1          2          3          4          5
     1  Pt   0.000000
     2  N    1.990000   0.000000
     3  O    2.759341   1.360000   0.000000
     4  O    2.759341   1.360000   2.220871   0.000000
     5  N    1.990000   2.814285   3.496737   2.619985   0.000000
     6  O    2.759341   2.868105   3.075366   2.508008   1.360000
     7  O    2.759341   3.148433   4.131993   2.491628   1.360000
     8  Cl   2.280000   3.026301   4.314071   3.249765   3.026301
     9  N    1.990000   2.814285   2.552017   3.679551   2.814285
    10  O    2.759341   3.952044   3.773096   4.555880   2.908969
    11  O    2.759341   3.499544   3.069614   4.634087   4.078329
    12  Br   2.430000   4.420000   5.039193   5.039193   3.140860
    13  Br   2.430000   3.140860   3.566701   4.389756   4.420000
                    6          7          8          9         10
     6  O    0.000000
     7  O    2.220871   0.000000
     8  Cl   4.150311   2.698885   0.000000
     9  N    2.778959   4.049602   4.270000   0.000000
    10  O    2.896194   4.263790   4.894279   1.360000   0.000000
    11  O    4.122448   5.244480   4.894279   1.360000   2.220871
    12  Br   4.196090   3.943051   3.332161   3.140860   2.929163
    13  Br   5.039193   5.039193   3.332161   3.140860   4.161599
                   11         12         13
    11  O    0.000000
    12  Br   3.563337   0.000000
    13  Br   2.709550   3.436539   0.000000
 Stoichiometry    Br2ClN3O6Pt(2-)
 Framework group  C1[X(Br2ClN3O6Pt)]
 Deg. of freedom    33
 Full point group                 C1      NOp   1
 Largest Abelian subgroup         C1      NOp   1
 Largest concise Abelian subgroup C1      NOp   1
                         Standard orientation:                         
 ---------------------------------------------------------------------
 Center     Atomic      Atomic             Coordinates (Angstroms)
 Number     Number       Type             X           Y           Z
 ---------------------------------------------------------------------
      1         78           0        0.184405   -0.023445   -0.062186
      2          7           0        1.414537   -1.586448   -0.124619
      3          8           0        1.422720   -2.205554    1.086266
      4          8           0        2.671257   -1.162529   -0.425528
      5          7           0        1.732244    1.181338    0.273659
      6          8           0        2.494960    0.670511    1.277113
      7          8           0        2.480574    1.283983   -0.857299
      8         17           0        0.443322    0.270051   -2.308344
      9          7           0       -0.041580   -0.279611    1.898275
     10          8           0       -0.113080    0.933585    2.508720
     11          8           0       -1.186167   -0.974710    2.135675
     12         35           0       -1.317717    1.885146    0.014050
     13         35           0       -1.705670   -1.494613   -0.472289
 ---------------------------------------------------------------------
 Rotational constants (GHZ):      0.4331243      0.3869636      0.3381917
 General basis read from cards:  (5D, 7F)
 ======================================================================================================
                                       Pseudopotential Parameters
 ======================================================================================================
  Center     Atomic      Valence      Angular      Power
  Number     Number     Electrons     Momentum     of R      Exponent        Coefficient   SO-Coeffient
 ======================================================================================================
    1         78           18
                                      G and up 
                                                     1      728.9394056       -0.16192680    0.00000000
                                                     2      320.6567800    -1320.28738520    0.00000000
                                                     2       52.8680174     -298.31781350    0.00000000
                                                     2       12.0280128      -87.58370650    0.00000000
                                                     2        3.5238913       -8.14932740    0.00000000
                                      S - G
                                                     0      409.4437358        2.73342180    0.00000000
                                                     1      274.5419231       59.70243290    0.00000000
                                                     2      127.5658570      891.45895500    0.00000000
                                                     2       32.9036631      368.44676560    0.00000000
                                                     2        5.0593880      238.02630900    0.00000000
                                                     2        4.1506556     -107.05564540    0.00000000
                                      P - G
                                                     0      466.1728892        1.88785680    0.00000000
                                                     1      120.7888259       76.01386290    0.00000000
                                                     2       36.4118791      343.55111160    0.00000000
                                                     2        5.6985408      119.49117860    0.00000000
                                      D - G
                                                     0      249.5650763        2.93436780    0.00000000
                                                     1      126.6678585       59.33065710    0.00000000
                                                     2       63.1430586      452.44451940    0.00000000
                                                     2       17.9059470      210.47694790    0.00000000
                                                     2        4.2239373       58.62541120    0.00000000
                                      F - G
                                                     0      121.8158799        3.95342530    0.00000000
                                                     1       60.8757030       53.85551820    0.00000000
                                                     2       31.4767147      247.43051330    0.00000000
                                                     2        9.8811751      127.81879760    0.00000000
                                                     2        2.7319874       15.37720460    0.00000000
    2          7
                                   No pseudopotential on this center.
    3          8
                                   No pseudopotential on this center.
    4          8
                                   No pseudopotential on this center.
    5          7
                                   No pseudopotential on this center.
    6          8
                                   No pseudopotential on this center.
    7          8
                                   No pseudopotential on this center.
    8         17
                                   No pseudopotential on this center.
    9          7
                                   No pseudopotential on this center.
   10          8
                                   No pseudopotential on this center.
   11          8
                                   No pseudopotential on this center.
   12         35
                                   No pseudopotential on this center.
   13         35
                                   No pseudopotential on this center.
 ======================================================================================================
 There are   248 symmetry adapted cartesian basis functions of A   symmetry.
 There are   230 symmetry adapted basis functions of A   symmetry.
   230 basis functions,   465 primitive gaussians,   248 cartesian basis functions
    88 alpha electrons       88 beta electrons
       nuclear repulsion energy      2259.9628071611 Hartrees.
 NAtoms=   13 NActive=   13 NUniq=   13 SFac= 1.00D+00 NAtFMM=   60 NAOKFM=F Big=F
 Integral buffers will be    131072 words long.
 Raffenetti 2 integral format.
 Two-electron integral symmetry is turned on.
 ------------------------------------------------------------------------------
 Polarizable Continuum Model (PCM)
 =================================
 Model                : PCM (using non-symmetric T matrix).
 Atomic radii         : UFF (Universal Force Field).
 Polarization charges : Total charges.
 Charge compensation  : None.
 Solution method      : On-the-fly selection.
 Cavity type          : Scaled VdW (van der Waals Surface) (Alpha=1.100).
 Cavity algorithm     : GePol (No added spheres)
                        Default sphere list used, NSphG=   13.
                        Lebedev-Laikov grids with approx.  5.0 points / Ang**2.
                        Smoothing algorithm: Karplus/York (Gamma=1.0000).
                        Polarization charges: spherical gaussians, with
                                              point-specific exponents (IZeta= 3).
                        Self-potential: point-specific (ISelfS= 7).
                        Self-field    : sphere-specific E.n sum rule (ISelfD= 2).
 1st derivatives      : Analytical E(r).r(x)/FMM algorithm (CHGder, D1EAlg=3).
                        Cavity 1st derivative terms included.
 Solvent              : Water, Eps=  78.355300 Eps(inf)=   1.777849
 ------------------------------------------------------------------------------
 Spheres list:
 ISph  on   Nord     Re0    Alpha      Xe            Ye            Ze
    1  Pt      1    1.3770  1.100      0.184405     -0.023445     -0.062186
    2   N      2    1.8300  1.100      1.414537     -1.586448     -0.124619
    3   O      3    1.7500  1.100      1.422720     -2.205554      1.086266
    4   O      4    1.7500  1.100      2.671257     -1.162529     -0.425528
    5   N      5    1.8300  1.100      1.732244      1.181338      0.273659
    6   O      6    1.7500  1.100      2.494960      0.670511      1.277113
    7   O      7    1.7500  1.100      2.480574      1.283983     -0.857299
    8  Cl      8    1.9735  1.100      0.443322      0.270051     -2.308344
    9   N      9    1.8300  1.100     -0.041580     -0.279611      1.898275
   10   O     10    1.7500  1.100     -0.113080      0.933585      2.508720
   11   O     11    1.7500  1.100     -1.186167     -0.974710      2.135675
   12  Br     12    2.0945  1.100     -1.317717      1.885146      0.014050
   13  Br     13    2.0945  1.100     -1.705670     -1.494613     -0.472289
 ------------------------------------------------------------------------------
 One-electron integrals computed using PRISM.
   1 Symmetry operations used in ECPInt.
 ECPInt:  NShTT=    4465 NPrTT=   20734 LenC2=    4161 LenP2D=   13456.
 LDataN:  DoStor=T MaxTD1= 6 Len=  172
 NBasis=   230 RedAO= T EigKep=  3.43D-03  NBF=   230
 NBsUse=   230 1.00D-06 EigRej= -1.00D+00 NBFU=   230
 Defaulting to unpruned grid for atomic number  78.
 ExpMin= 2.90D-02 ExpMax= 1.13D+05 ExpMxC= 1.70D+04 IAcc=3 IRadAn=         5 AccDes= 0.00D+00
 Harris functional with IExCor=  402 and IRadAn=       5 diagonalized for initial guess.
 HarFok:  IExCor=  402 AccDes= 0.00D+00 IRadAn=         5 IDoV= 1 UseB2=F ITyADJ=14
 ICtDFT=  3500011 ScaDFX=  1.000000  1.000000  1.000000  1.000000
 Defaulting to unpruned grid for atomic number  78.
 Defaulting to unpruned grid for atomic number  78.
 Defaulting to unpruned grid for atomic number  78.
 Defaulting to unpruned grid for atomic number  78.
 Defaulting to unpruned grid for atomic number  78.
 Defaulting to unpruned grid for atomic number  78.
 Defaulting to unpruned grid for atomic number  78.
 Defaulting to unpruned grid for atomic number  78.
 FoFCou: FMM=F IPFlag=           0 FMFlag=      100000 FMFlg1=           0
         NFxFlg=           0 DoJE=T BraDBF=F KetDBF=T FulRan=T
         wScrn=  0.000000 ICntrl=     500 IOpCl=  0 I1Cent=   200000004 NGrid=           0
         NMat0=    1 NMatS0=      1 NMatT0=    0 NMatD0=    1 NMtDS0=    0 NMtDT0=    0
 Petite list used in FoFCou.
 Keep R1 ints in memory in canonical form, NReq=360788779.
 Requested convergence on RMS density matrix=1.00D-08 within 128 cycles.
 Requested convergence on MAX density matrix=1.00D-06.
 Requested convergence on             energy=1.00D-06.
 No special actions if energy rises.
 Defaulting to unpruned grid for atomic number  78.
 Defaulting to unpruned grid for atomic number  78.
 Defaulting to unpruned grid for atomic number  78.
 Defaulting to unpruned grid for atomic number  78.
 Defaulting to unpruned grid for atomic number  78.
 Defaulting to unpruned grid for atomic number  78.
 Defaulting to unpruned grid for atomic number  78.
 Defaulting to unpruned grid for atomic number  78.
 Inv3:  Mode=1 IEnd=     8187312.
 Iteration    1 A*A^-1 deviation from unit magnitude is 7.11D-15 for   1196.
 Iteration    1 A*A^-1 deviation from orthogonality  is 4.01D-15 for    266     13.
 Iteration    1 A^-1*A deviation from unit magnitude is 6.66D-15 for   1196.
 Iteration    1 A^-1*A deviation from orthogonality  is 1.32D-14 for   1546   1471.
 EnCoef did   100 forward-backward iterations
 EnCoef did   100 forward-backward iterations
 EnCoef did   100 forward-backward iterations
 EnCoef did     5 forward-backward iterations
 EnCoef did     2 forward-backward iterations
 EnCoef did     4 forward-backward iterations
 Error on total polarization charges =  0.01131
 SCF Done:  E(RB3LYP) =  -6341.98866300     A.U. after   25 cycles
            NFock= 25  Conv=0.90D-08     -V/T= 2.0148

 **********************************************************************

            Population analysis using the SCF density.

 **********************************************************************

 Orbital symmetries:
       Occupied  (A) (A) (A) (A) (A) (A) (A) (A) (A) (A) (A) (A)
                 (A) (A) (A) (A) (A) (A) (A) (A) (A) (A) (A) (A)
                 (A) (A) (A) (A) (A) (A) (A) (A) (A) (A) (A) (A)
                 (A) (A) (A) (A) (A) (A) (A) (A) (A) (A) (A) (A)
                 (A) (A) (A) (A) (A) (A) (A) (A) (A) (A) (A) (A)
                 (A) (A) (A) (A) (A) (A) (A) (A) (A) (A) (A) (A)
                 (A) (A) (A) (A) (A) (A) (A) (A) (A) (A) (A) (A)
                 (A) (A) (A) (A)
       Virtual   (A) (A) (A) (A) (A) (A) (A) (A) (A) (A) (A) (A)
                 (A) (A) (A) (A) (A) (A) (A) (A) (A) (A) (A) (A)
                 (A) (A) (A) (A) (A) (A) (A) (A) (A) (A) (A) (A)
                 (A) (A) (A) (A) (A) (A) (A) (A) (A) (A) (A) (A)
                 (A) (A) (A) (A) (A) (A) (A) (A) (A) (A) (A) (A)
                 (A) (A) (A) (A) (A) (A) (A) (A) (A) (A) (A) (A)
                 (A) (A) (A) (A) (A) (A) (A) (A) (A) (A) (A) (A)
                 (A) (A) (A) (A) (A) (A) (A) (A) (A) (A) (A) (A)
                 (A) (A) (A) (A) (A) (A) (A) (A) (A) (A) (A) (A)
                 (A) (A) (A) (A) (A) (A) (A) (A) (A) (A) (A) (A)
                 (A) (A) (A) (A) (A) (A) (A) (A) (A) (A) (A) (A)
                 (A) (A) (A) (A) (A) (A) (A) (A) (A) (A)
 The electronic state is 1-A.
 Alpha  occ. eigenvalues -- -482.75573-482.74932-101.44904 -62.43730 -62.43092
 Alpha  occ. eigenvalues --  -56.26929 -56.26623 -56.26622 -56.26297 -56.25992
 Alpha  occ. eigenvalues --  -56.25971 -19.14961 -19.14740 -19.14535 -19.14372
 Alpha  occ. eigenvalues --  -19.14152 -19.13994 -14.49911 -14.49288 -14.49095
 Alpha  occ. eigenvalues --   -9.40312  -8.65500  -8.64869  -7.17136  -7.16276
 Alpha  occ. eigenvalues --   -7.16222  -6.48724  -6.48112  -6.47617  -6.47610
 Alpha  occ. eigenvalues --   -6.47007  -6.46939  -4.04163  -2.60172  -2.59860
 Alpha  occ. eigenvalues --   -2.59853  -2.59556  -2.59261  -2.59210  -2.58984
 Alpha  occ. eigenvalues --   -2.58983  -2.58339  -2.58337  -2.25629  -2.25580
 Alpha  occ. eigenvalues --   -2.25318  -1.10169  -1.08792  -1.08613  -0.93543
 Alpha  occ. eigenvalues --   -0.93299  -0.92600  -0.76870  -0.73978  -0.72739
 Alpha  occ. eigenvalues --   -0.65658  -0.65165  -0.64907  -0.51288  -0.49938
 Alpha  occ. eigenvalues --   -0.49439  -0.47630  -0.47382  -0.47223  -0.45980
 Alpha  occ. eigenvalues --   -0.45531  -0.43357  -0.39464  -0.38015  -0.37667
 Alpha  occ. eigenvalues --   -0.37068  -0.35897  -0.34317  -0.29372  -0.28786
 Alpha  occ. eigenvalues --   -0.28102  -0.27439  -0.26971  -0.26720  -0.26571
 Alpha  occ. eigenvalues --   -0.26152  -0.25605  -0.25290  -0.25135  -0.24637
 Alpha  occ. eigenvalues --   -0.24131  -0.23751  -0.22038
 Alpha virt. eigenvalues --   -0.13574  -0.13220  -0.11976  -0.03533  -0.03392
 Alpha virt. eigenvalues --    0.05695   0.05954   0.06710   0.15376   0.17680
 Alpha virt. eigenvalues --    0.18448   0.19484   0.20475   0.20668   0.20979
 Alpha virt. eigenvalues --    0.27393   0.28753   0.30107   0.39537   0.39825
 Alpha virt. eigenvalues --    0.41777   0.44410   0.44934   0.45909   0.47623
 Alpha virt. eigenvalues --    0.54692   0.55341   0.55866   0.56760   0.58212
 Alpha virt. eigenvalues --    0.60022   0.61192   0.62717   0.64244   0.67505
 Alpha virt. eigenvalues --    0.68148   0.69353   0.71324   0.71605   0.72722
 Alpha virt. eigenvalues --    0.75960   0.76112   0.78427   0.79488   0.81385
 Alpha virt. eigenvalues --    0.83370   0.84725   0.87921   0.88341   0.90436
 Alpha virt. eigenvalues --    0.91043   0.91882   0.92449   0.93841   0.94746
 Alpha virt. eigenvalues --    0.96158   0.97024   0.99580   1.00838   1.02321
 Alpha virt. eigenvalues --    1.04327   1.05147   1.06304   1.07104   1.08663
 Alpha virt. eigenvalues --    1.10820   1.11437   1.13801   1.14524   1.15577
 Alpha virt. eigenvalues --    1.17353   1.20121   1.20891   1.23699   1.24826
 Alpha virt. eigenvalues --    1.27568   1.28085   1.28897   1.35305   1.36679
 Alpha virt. eigenvalues --    1.38368   1.43414   1.48336   1.50312   1.54418
 Alpha virt. eigenvalues --    1.59762   1.89310   1.90764   1.93254   1.97250
 Alpha virt. eigenvalues --    2.00919   2.02401   2.06182   2.10359   2.17365
 Alpha virt. eigenvalues --    2.27990   2.30654   2.32903   2.33998   2.35525
 Alpha virt. eigenvalues --    2.36241   2.64850   2.65107   2.65981   2.66412
 Alpha virt. eigenvalues --    2.66801   2.67266   2.67602   2.68736   2.69050
 Alpha virt. eigenvalues --    2.69794   2.70194   2.71843   2.75781   2.75987
 Alpha virt. eigenvalues --    2.77862   2.95847   2.98842   3.00439   3.01508
 Alpha virt. eigenvalues --    3.01763   3.02296   3.21779   3.23310   3.23767
 Alpha virt. eigenvalues --    3.44185   3.45640   3.47610   3.49082   3.49549
 Alpha virt. eigenvalues --    3.50636   3.51913   3.55272   3.57517   3.62853
 Alpha virt. eigenvalues --    3.67058   3.70510   3.70894   3.75043   3.76747
 Alpha virt. eigenvalues --    3.82859   8.36223
          Condensed to atoms (all electrons):
               1          2          3          4          5          6
     1  Pt  17.421420  -0.019899   0.009046   0.002994  -0.020701   0.004435
     2  N   -0.019899   6.766141   0.167489   0.172338  -0.018711  -0.009891
     3  O    0.009046   0.167489   8.207301  -0.093413  -0.000313   0.001457
     4  O    0.002994   0.172338  -0.093413   8.186740  -0.023068   0.003449
     5  N   -0.020701  -0.018711  -0.000313  -0.023068   6.763093   0.168276
     6  O    0.004435  -0.009891   0.001457   0.003449   0.168276   8.203558
     7  O   -0.006210  -0.002784  -0.000014  -0.000850   0.182172  -0.094769
     8  Cl   0.259204  -0.012562   0.000153  -0.000953  -0.008372   0.000152
     9  N    0.002029  -0.018964  -0.018339   0.000057  -0.027607  -0.005688
    10  O   -0.013496   0.000408   0.000197   0.000003  -0.001969  -0.000303
    11  O   -0.005084  -0.000218   0.000179  -0.000001   0.000319   0.000124
    12  Br   0.250496  -0.004140   0.000099   0.000084  -0.019428   0.000411
    13  Br   0.238234  -0.021889   0.000444   0.000495  -0.004304   0.000112
               7          8          9         10         11         12
     1  Pt  -0.006210   0.259204   0.002029  -0.013496  -0.005084   0.250496
     2  N   -0.002784  -0.012562  -0.018964   0.000408  -0.000218  -0.004140
     3  O   -0.000014   0.000153  -0.018339   0.000197   0.000179   0.000099
     4  O   -0.000850  -0.000953   0.000057   0.000003  -0.000001   0.000084
     5  N    0.182172  -0.008372  -0.027607  -0.001969   0.000319  -0.019428
     6  O   -0.094769   0.000152  -0.005688  -0.000303   0.000124   0.000411
     7  O    8.188438  -0.027995   0.000316   0.000069   0.000000   0.000121
     8  Cl  -0.027995  17.006544  -0.003108   0.000048   0.000045  -0.019054
     9  N    0.000316  -0.003108   6.729730   0.179541   0.168289  -0.019140
    10  O    0.000069   0.000048   0.179541   8.213646  -0.091000  -0.009837
    11  O    0.000000   0.000045   0.168289  -0.091000   8.236522   0.000383
    12  Br   0.000121  -0.019054  -0.019140  -0.009837   0.000383  34.919478
    13  Br   0.000098  -0.018648  -0.011325   0.000555  -0.036189  -0.021381
              13
     1  Pt   0.238234
     2  N   -0.021889
     3  O    0.000444
     4  O    0.000495
     5  N   -0.004304
     6  O    0.000112
     7  O    0.000098
     8  Cl  -0.018648
     9  N   -0.011325
    10  O    0.000555
    11  O   -0.036189
    12  Br  -0.021381
    13  Br  34.951981
 Mulliken charges:
               1
     1  Pt  -0.122466
     2  N    0.002682
     3  O   -0.274285
     4  O   -0.247875
     5  N    0.010613
     6  O   -0.271323
     7  O   -0.238591
     8  Cl  -0.175455
     9  N    0.024208
    10  O   -0.277862
    11  O   -0.273370
    12  Br  -0.078094
    13  Br  -0.078182
 Sum of Mulliken charges =  -2.00000
 Mulliken charges with hydrogens summed into heavy atoms:
               1
     1  Pt  -0.122466
     2  N    0.002682
     3  O   -0.274285
     4  O   -0.247875
     5  N    0.010613
     6  O   -0.271323
     7  O   -0.238591
     8  Cl  -0.175455
     9  N    0.024208
    10  O   -0.277862
    11  O   -0.273370
    12  Br  -0.078094
    13  Br  -0.078182
 Electronic spatial extent (au):  <R**2>=           3697.6266
 Charge=             -2.0000 electrons
 Dipole moment (field-independent basis, Debye):
    X=             -4.5875    Y=              0.7268    Z=             -2.5630  Tot=              5.3049
 Quadrupole moment (field-independent basis, Debye-Ang):
   XX=           -161.8278   YY=           -145.8670   ZZ=           -155.2798
   XY=             -0.5481   XZ=              2.1168   YZ=              2.8650
 Traceless Quadrupole moment (field-independent basis, Debye-Ang):
   XX=             -7.5029   YY=              8.4579   ZZ=             -0.9549
   XY=             -0.5481   XZ=              2.1168   YZ=              2.8650
 Octapole moment (field-independent basis, Debye-Ang**2):
  XXX=           -105.6347  YYY=             16.9797  ZZZ=            -29.4461  XYY=            -22.1684
  XXY=              6.0216  XXZ=             -8.3537  XZZ=            -15.7791  YZZ=             -3.0216
  YYZ=            -14.5215  XYZ=              3.4857
 Hexadecapole moment (field-independent basis, Debye-Ang**3):
 XXXX=          -1823.4277 YYYY=          -1319.2204 ZZZZ=          -1314.9098 XXXY=             -0.6294
 XXXZ=             14.0057 YYYX=             14.8064 YYYZ=             40.7448 ZZZX=             33.4332
 ZZZY=              1.6136 XXYY=           -522.0812 XXZZ=           -515.1373 YYZZ=           -445.5268
 XXYZ=             16.7028 YYXZ=              0.5439 ZZXY=            -11.5003
 N-N= 2.259962807161D+03 E-N=-1.966691574636D+04  KE= 6.249198811491D+03
   1 Symmetry operations used in ECPInt.
 ECPInt:  NShTT=    4465 NPrTT=   20734 LenC2=    4161 LenP2D=   13456.
 LDataN:  DoStor=T MaxTD1= 7 Len=  274
 D1PCM: PCM CHGder 1st derivatives, ID1Alg=3 FixD1E=F DoIter=F DoCFld=F I1PDM=0.
 Calling FoFJK, ICntrl=      2127 FMM=F ISym2X=0 I1Cent= 0 IOpClX= 0 NMat=1 NMatS=1 NMatT=0.
 Defaulting to unpruned grid for atomic number  78.
 Defaulting to unpruned grid for atomic number  78.
 Defaulting to unpruned grid for atomic number  78.
 Defaulting to unpruned grid for atomic number  78.
 Defaulting to unpruned grid for atomic number  78.
 Defaulting to unpruned grid for atomic number  78.
 Defaulting to unpruned grid for atomic number  78.
 Defaulting to unpruned grid for atomic number  78.
 ***** Axes restored to original set *****
 -------------------------------------------------------------------
 Center     Atomic                   Forces (Hartrees/Bohr)
 Number     Number              X              Y              Z
 -------------------------------------------------------------------
      1       78          -0.016026254    0.026148377    0.031622532
      2        7           0.101807650   -0.107250053   -0.141302562
      3        8          -0.096304888    0.020099013    0.023480860
      4        8           0.004662376    0.012583332    0.106214697
      5        7          -0.042296445   -0.167314516   -0.110515473
      6        8          -0.046766045    0.085375891    0.022584413
      7        8           0.087766842    0.068648421    0.011926308
      8       17          -0.045062505    0.005256199    0.014729937
      9        7           0.103715094    0.165908553    0.068780725
     10        8          -0.022507974   -0.094441924    0.028447453
     11        8          -0.011362542   -0.045307722   -0.094178651
     12       35          -0.001277009    0.034541454   -0.000719881
     13       35          -0.016348300   -0.004247026    0.038929642
 -------------------------------------------------------------------
 Cartesian Forces:  Max     0.167314516 RMS     0.071535897

 GradGradGradGradGradGradGradGradGradGradGradGradGradGradGradGradGradGrad
 Berny optimization.
 FormGI is forming the generalized inverse of G from B-inverse, IUseBI=4.
 Internal  Forces:  Max     0.103233635 RMS     0.040502397
 Search for a local minimum.
 Step number   1 out of a maximum of   73
 All quantities printed in internal units (Hartrees-Bohrs-Radians)
 Mixed Optimization -- RFO/linear search
 Second derivative matrix not updated -- first step.
 ITU=  0
     Eigenvalues ---    0.00230   0.00230   0.00230   0.04734   0.04734
     Eigenvalues ---    0.04734   0.08487   0.08487   0.08487   0.08487
     Eigenvalues ---    0.08487   0.08487   0.16743   0.16743   0.16743
     Eigenvalues ---    0.19509   0.19509   0.20378   0.20378   0.20378
     Eigenvalues ---    0.22001   0.25000   0.25000   0.25000   0.25000
     Eigenvalues ---    0.25000   0.25000   0.52948   0.52948   0.52948
     Eigenvalues ---    0.52948   0.52948   0.52948
 RFO step:  Lambda=-2.09789653D-01 EMin= 2.30000000D-03
 Linear search not attempted -- first point.
 Maximum step size (   0.300) exceeded in Quadratic search.
    -- Step size scaled by   0.527
 Iteration  1 RMS(Cart)=  0.09232001 RMS(Int)=  0.00352771
 Iteration  2 RMS(Cart)=  0.00398179 RMS(Int)=  0.00136369
 Iteration  3 RMS(Cart)=  0.00001937 RMS(Int)=  0.00136364
 Iteration  4 RMS(Cart)=  0.00000008 RMS(Int)=  0.00136364
 Variable       Old X    -DE/DX   Delta X   Delta X   Delta X     New X
                                 (Linear)    (Quad)   (Total)
    R1        3.76056   0.07457   0.00000   0.09509   0.09509   3.85565
    R2        3.76056   0.07596   0.00000   0.09686   0.09686   3.85741
    R3        4.30858   0.04506   0.00000   0.05528   0.05528   4.36386
    R4        3.76056   0.06986   0.00000   0.08908   0.08908   3.84964
    R5        4.59203   0.03454   0.00000   0.04499   0.04499   4.63702
    R6        4.59203   0.03894   0.00000   0.05072   0.05072   4.64275
    R7        2.57003  -0.09388   0.00000  -0.06697  -0.06697   2.50306
    R8        2.57003  -0.09834   0.00000  -0.07015  -0.07015   2.49987
    R9        2.57003  -0.09364   0.00000  -0.06680  -0.06680   2.50323
   R10        2.57003  -0.10323   0.00000  -0.07364  -0.07364   2.49638
   R11        2.57003  -0.09437   0.00000  -0.06732  -0.06732   2.50271
   R12        2.57003  -0.09748   0.00000  -0.06954  -0.06954   2.50049
    A1        1.57080   0.01370   0.00000   0.02109   0.02115   1.59195
    A2        1.57080   0.00321   0.00000   0.00576   0.00554   1.57634
    A3        1.57080   0.00488   0.00000   0.00870   0.00889   1.57969
    A4        1.57080  -0.01088   0.00000  -0.01605  -0.01614   1.55465
    A5        1.57080   0.01786   0.00000   0.02433   0.02423   1.59503
    A6        1.57080  -0.01586   0.00000  -0.02076  -0.02088   1.54992
    A7        1.57080  -0.00661   0.00000  -0.00841  -0.00845   1.56235
    A8        1.57080  -0.00475   0.00000  -0.00852  -0.00851   1.56228
    A9        1.57080  -0.02308   0.00000  -0.03369  -0.03362   1.53718
   A10        1.57080  -0.00333   0.00000  -0.00594  -0.00596   1.56483
   A11        1.57080   0.02109   0.00000   0.03011   0.03019   1.60098
   A12        1.57080   0.00380   0.00000   0.00337   0.00342   1.57422
   A13        1.91063   0.02853   0.00000   0.04387   0.04105   1.95168
   A14        1.91063   0.05319   0.00000   0.07215   0.06939   1.98002
   A15        1.91063  -0.00386   0.00000   0.01787   0.01319   1.92383
   A16        1.91063   0.02145   0.00000   0.03546   0.03278   1.94341
   A17        1.91063   0.05905   0.00000   0.07859   0.07599   1.98662
   A18        1.91063  -0.00421   0.00000   0.01689   0.01245   1.92309
   A19        1.91063   0.02223   0.00000   0.03598   0.03347   1.94411
   A20        1.91063   0.05564   0.00000   0.07430   0.07187   1.98250
   A21        1.91063  -0.00415   0.00000   0.01620   0.01204   1.92267
   A22        3.14159   0.00709   0.00000   0.01269   0.01270   3.15429
   A23        3.14159   0.00282   0.00000   0.00504   0.00501   3.14660
   A24        3.14159   0.00808   0.00000   0.01447   0.01443   3.15602
   A25        3.14159  -0.00154   0.00000  -0.00276  -0.00267   3.13893
   A26        3.14159   0.00523   0.00000   0.00935   0.00936   3.15095
   A27        3.14159   0.00200   0.00000   0.00358   0.00366   3.14526
    D1        1.69913   0.01523   0.00000   0.03678   0.03765   1.73678
    D2       -0.39527  -0.03009   0.00000  -0.05616  -0.05702  -0.45228
    D3       -3.01326   0.03309   0.00000   0.06111   0.06201  -2.95125
    D4        1.17553  -0.01223   0.00000  -0.03183  -0.03266   1.14287
    D5        0.12833   0.03109   0.00000   0.05754   0.05835   0.18668
    D6       -1.96606  -0.01422   0.00000  -0.03540  -0.03632  -2.00239
    D7       -1.44247   0.01000   0.00000   0.02743   0.02830  -1.41417
    D8        2.74632  -0.03531   0.00000  -0.06552  -0.06637   2.67995
    D9       -0.85521  -0.02208   0.00000  -0.04472  -0.04539  -0.90059
   D10        1.23919   0.02205   0.00000   0.04580   0.04678   1.28596
   D11       -2.42600  -0.02529   0.00000  -0.05049  -0.05144  -2.47745
   D12       -0.33161   0.01885   0.00000   0.04003   0.04072  -0.29089
   D13        0.71559  -0.01720   0.00000  -0.03602  -0.03693   0.67866
   D14        2.80998   0.02693   0.00000   0.05450   0.05523   2.86521
   D15        2.28638  -0.02054   0.00000  -0.04196  -0.04272   2.24366
   D16       -1.90241   0.02360   0.00000   0.04856   0.04944  -1.85296
   D17        2.48578  -0.01418   0.00000  -0.03322  -0.03408   2.45170
   D18       -1.70301   0.02842   0.00000   0.05415   0.05484  -1.64817
   D19        0.91499  -0.02788   0.00000  -0.05431  -0.05505   0.85994
   D20        3.00938   0.01472   0.00000   0.03306   0.03387   3.04325
   D21       -0.65581  -0.02127   0.00000  -0.04591  -0.04672  -0.70253
   D22        1.43858   0.02133   0.00000   0.04146   0.04220   1.48078
   D23       -2.22661  -0.02507   0.00000  -0.04928  -0.04996  -2.27657
   D24       -0.13221   0.01753   0.00000   0.03810   0.03896  -0.09325
         Item               Value     Threshold  Converged?
 Maximum Force            0.103234     0.000450     NO 
 RMS     Force            0.040502     0.000300     NO 
 Maximum Displacement     0.260311     0.001800     NO 
 RMS     Displacement     0.090431     0.001200     NO 
 Predicted change in Energy=-9.635065D-02
 GradGradGradGradGradGradGradGradGradGradGradGradGradGradGradGradGradGrad

                          Input orientation:                          
 ---------------------------------------------------------------------
 Center     Atomic      Atomic             Coordinates (Angstroms)
 Number     Number       Type             X           Y           Z
 ---------------------------------------------------------------------
      1         78           0       -0.338827    0.340282    0.011871
      2          7           0       -0.314643   -1.699802    0.031355
      3          8           0        0.901678   -2.175729    0.251629
      4          8           0       -0.827421   -2.242738   -1.060561
      5          7           0       -0.318200    0.364205   -2.029140
      6          8           0        0.662690   -0.384819   -2.510303
      7          8           0       -1.468332    0.017074   -2.578520
      8         17           0       -2.647810    0.326016    0.044334
      9          7           0        1.697765    0.382334   -0.009582
     10          8           0        2.152794    1.335619   -0.808433
     11          8           0        2.237677    0.498665    1.192843
     12         35           0       -0.374771    2.793813    0.019531
     13         35           0       -0.386783    0.323509    2.468184
 ---------------------------------------------------------------------
                    Distance matrix (angstroms):
                    1          2          3          4          5
     1  Pt   0.000000
     2  N    2.040320   0.000000
     3  O    2.815430   1.324562   0.000000
     4  O    2.839159   1.322876   2.171662   0.000000
     5  N    2.041255   2.916467   3.625089   2.827296   0.000000
     6  O    2.808945   3.023969   3.300416   2.788198   1.324651
     7  O    2.844357   3.330181   4.293608   2.796733   1.321030
     8  Cl   2.309255   3.089948   4.347478   3.336631   3.118947
     9  N    2.037139   2.895989   2.691779   3.791059   2.853604
    10  O    2.805668   4.000909   3.875383   4.663678   2.922257
    11  O    2.838689   3.563236   3.134193   4.689131   4.114822
    12  Br   2.453806   4.494033   5.136102   5.170912   3.178561
    13  Br   2.456839   3.168143   3.580425   4.385411   4.498031
                    6          7          8          9         10
     6  O    0.000000
     7  O    2.169660   0.000000
     8  Cl   4.241564   2.892399   0.000000
     9  N    2.813096   4.093534   4.346274   0.000000
    10  O    2.841950   4.240792   4.979188   1.324374   0.000000
    11  O    4.120003   5.309388   5.021640   1.323202   2.170899
    12  Br   4.192862   3.956769   3.355196   3.179856   3.033223
    13  Br   5.136970   5.170384   3.314710   3.238538   4.267323
                   11         12         13
    11  O    0.000000
    12  Br   3.670048   0.000000
    13  Br   2.923177   3.478282   0.000000
 Stoichiometry    Br2ClN3O6Pt(2-)
 Framework group  C1[X(Br2ClN3O6Pt)]
 Deg. of freedom    33
 Full point group                 C1      NOp   1
 Largest Abelian subgroup         C1      NOp   1
 Largest concise Abelian subgroup C1      NOp   1
                         Standard orientation:                         
 ---------------------------------------------------------------------
 Center     Atomic      Atomic             Coordinates (Angstroms)
 Number     Number       Type             X           Y           Z
 ---------------------------------------------------------------------
      1         78           0        0.179787   -0.029629   -0.068223
      2          7           0        1.398148   -1.666179   -0.082512
      3          8           0        1.439659   -2.259485    1.101013
      4          8           0        2.623783   -1.406258   -0.507082
      5          7           0        1.783947    1.216687    0.132008
      6          8           0        2.561421    0.844230    1.137747
      7          8           0        2.498079    1.348782   -0.971481
      8         17           0        0.299031    0.095202   -2.371016
      9          7           0        0.051068   -0.120608    1.962809
     10          8           0        0.081001    1.088087    2.503299
     11          8           0       -1.005571   -0.788312    2.397032
     12         35           0       -1.309761    1.920334   -0.060601
     13         35           0       -1.756696   -1.518420   -0.332019
 ---------------------------------------------------------------------
 Rotational constants (GHZ):      0.4115735      0.3783091      0.3281891
 Basis read from rwf:  (5D, 7F)
 Pseudo-potential data read from rwf file.
 There are   248 symmetry adapted cartesian basis functions of A   symmetry.
 There are   230 symmetry adapted basis functions of A   symmetry.
   230 basis functions,   465 primitive gaussians,   248 cartesian basis functions
    88 alpha electrons       88 beta electrons
       nuclear repulsion energy      2224.4187284562 Hartrees.
 NAtoms=   13 NActive=   13 NUniq=   13 SFac= 1.00D+00 NAtFMM=   60 NAOKFM=F Big=F
 Integral buffers will be    131072 words long.
 Raffenetti 2 integral format.
 Two-electron integral symmetry is turned on.
 ------------------------------------------------------------------------------
 Polarizable Continuum Model (PCM)
 =================================
 Model                : PCM (using non-symmetric T matrix).
 Atomic radii         : UFF (Universal Force Field).
 Polarization charges : Total charges.
 Charge compensation  : None.
 Solution method      : On-the-fly selection.
 Cavity type          : Scaled VdW (van der Waals Surface) (Alpha=1.100).
 Cavity algorithm     : GePol (No added spheres)
                        Default sphere list used, NSphG=   13.
                        Lebedev-Laikov grids with approx.  5.0 points / Ang**2.
                        Smoothing algorithm: Karplus/York (Gamma=1.0000).
                        Polarization charges: spherical gaussians, with
                                              point-specific exponents (IZeta= 3).
                        Self-potential: point-specific (ISelfS= 7).
                        Self-field    : sphere-specific E.n sum rule (ISelfD= 2).
 1st derivatives      : Analytical E(r).r(x)/FMM algorithm (CHGder, D1EAlg=3).
                        Cavity 1st derivative terms included.
 Solvent              : Water, Eps=  78.355300 Eps(inf)=   1.777849
 ------------------------------------------------------------------------------
 Spheres list:
 ISph  on   Nord     Re0    Alpha      Xe            Ye            Ze
    1  Pt      1    1.3770  1.100      0.179787     -0.029629     -0.068223
    2   N      2    1.8300  1.100      1.398148     -1.666179     -0.082512
    3   O      3    1.7500  1.100      1.439659     -2.259485      1.101013
    4   O      4    1.7500  1.100      2.623783     -1.406258     -0.507082
    5   N      5    1.8300  1.100      1.783947      1.216687      0.132008
    6   O      6    1.7500  1.100      2.561421      0.844230      1.137747
    7   O      7    1.7500  1.100      2.498079      1.348782     -0.971481
    8  Cl      8    1.9735  1.100      0.299031      0.095202     -2.371016
    9   N      9    1.8300  1.100      0.051068     -0.120608      1.962809
   10   O     10    1.7500  1.100      0.081001      1.088087      2.503299
   11   O     11    1.7500  1.100     -1.005571     -0.788312      2.397032
   12  Br     12    2.0945  1.100     -1.309761      1.920334     -0.060601
   13  Br     13    2.0945  1.100     -1.756696     -1.518420     -0.332019
 ------------------------------------------------------------------------------
 One-electron integrals computed using PRISM.
   1 Symmetry operations used in ECPInt.
 ECPInt:  NShTT=    4465 NPrTT=   20734 LenC2=    4147 LenP2D=   13362.
 LDataN:  DoStor=T MaxTD1= 6 Len=  172
 NBasis=   230 RedAO= T EigKep=  3.69D-03  NBF=   230
 NBsUse=   230 1.00D-06 EigRej= -1.00D+00 NBFU=   230
 Defaulting to unpruned grid for atomic number  78.
 Initial guess from the checkpoint file:  "/home/scr/diego/Gau-27450.chk"
 B after Tr=     0.000000    0.000000    0.000000
         Rot=    0.999187    0.031106   -0.024913    0.006108 Ang=   4.62 deg.
 ExpMin= 2.90D-02 ExpMax= 1.13D+05 ExpMxC= 1.70D+04 IAcc=3 IRadAn=         5 AccDes= 0.00D+00
 Harris functional with IExCor=  402 and IRadAn=       5 diagonalized for initial guess.
 HarFok:  IExCor=  402 AccDes= 0.00D+00 IRadAn=         5 IDoV= 1 UseB2=F ITyADJ=14
 ICtDFT=  3500011 ScaDFX=  1.000000  1.000000  1.000000  1.000000
 Defaulting to unpruned grid for atomic number  78.
 Defaulting to unpruned grid for atomic number  78.
 Defaulting to unpruned grid for atomic number  78.
 Defaulting to unpruned grid for atomic number  78.
 Defaulting to unpruned grid for atomic number  78.
 Defaulting to unpruned grid for atomic number  78.
 Defaulting to unpruned grid for atomic number  78.
 Defaulting to unpruned grid for atomic number  78.
 FoFCou: FMM=F IPFlag=           0 FMFlag=      100000 FMFlg1=           0
         NFxFlg=           0 DoJE=T BraDBF=F KetDBF=T FulRan=T
         wScrn=  0.000000 ICntrl=     500 IOpCl=  0 I1Cent=   200000004 NGrid=           0
         NMat0=    1 NMatS0=      1 NMatT0=    0 NMatD0=    1 NMtDS0=    0 NMtDT0=    0
 Petite list used in FoFCou.
 Keep R1 ints in memory in canonical form, NReq=360788779.
 Requested convergence on RMS density matrix=1.00D-08 within 128 cycles.
 Requested convergence on MAX density matrix=1.00D-06.
 Requested convergence on             energy=1.00D-06.
 No special actions if energy rises.
 Defaulting to unpruned grid for atomic number  78.
 Defaulting to unpruned grid for atomic number  78.
 Defaulting to unpruned grid for atomic number  78.
 Defaulting to unpruned grid for atomic number  78.
 Defaulting to unpruned grid for atomic number  78.
 Defaulting to unpruned grid for atomic number  78.
 Defaulting to unpruned grid for atomic number  78.
 Defaulting to unpruned grid for atomic number  78.
 Inv3:  Mode=1 IEnd=     8527788.
 Iteration    1 A*A^-1 deviation from unit magnitude is 8.22D-15 for    253.
 Iteration    1 A*A^-1 deviation from orthogonality  is 5.74D-15 for    926    806.
 Iteration    1 A^-1*A deviation from unit magnitude is 7.55D-15 for   1314.
 Iteration    1 A^-1*A deviation from orthogonality  is 1.18D-13 for   1580   1505.
 Error on total polarization charges =  0.01065
 SCF Done:  E(RB3LYP) =  -6342.08226529     A.U. after   16 cycles
            NFock= 16  Conv=0.48D-08     -V/T= 2.0149
   1 Symmetry operations used in ECPInt.
 ECPInt:  NShTT=    4465 NPrTT=   20734 LenC2=    4147 LenP2D=   13362.
 LDataN:  DoStor=T MaxTD1= 7 Len=  274
 D1PCM: PCM CHGder 1st derivatives, ID1Alg=3 FixD1E=F DoIter=F DoCFld=F I1PDM=0.
 Calling FoFJK, ICntrl=      2127 FMM=F ISym2X=0 I1Cent= 0 IOpClX= 0 NMat=1 NMatS=1 NMatT=0.
 Defaulting to unpruned grid for atomic number  78.
 Defaulting to unpruned grid for atomic number  78.
 Defaulting to unpruned grid for atomic number  78.
 Defaulting to unpruned grid for atomic number  78.
 Defaulting to unpruned grid for atomic number  78.
 Defaulting to unpruned grid for atomic number  78.
 Defaulting to unpruned grid for atomic number  78.
 Defaulting to unpruned grid for atomic number  78.
 ***** Axes restored to original set *****
 -------------------------------------------------------------------
 Center     Atomic                   Forces (Hartrees/Bohr)
 Number     Number              X              Y              Z
 -------------------------------------------------------------------
      1       78          -0.010211479    0.012124322    0.020435976
      2        7           0.093065239   -0.099009183   -0.124003499
      3        8          -0.078480093    0.027932496    0.025015703
      4        8          -0.003438301    0.031136024    0.084051708
      5        7          -0.031990855   -0.152493306   -0.102245184
      6        8          -0.034838957    0.071795551    0.029044775
      7        8           0.063281313    0.061086409    0.029720390
      8       17          -0.030867638    0.002635095    0.006615136
      9        7           0.093222922    0.149462980    0.060451657
     10        8          -0.025255536   -0.081729304    0.018127830
     11        8          -0.026233772   -0.045292932   -0.073231015
     12       35          -0.000602681    0.025959612   -0.000901678
     13       35          -0.007650164   -0.003607763    0.026918200
 -------------------------------------------------------------------
 Cartesian Forces:  Max     0.152493306 RMS     0.062755377

 GradGradGradGradGradGradGradGradGradGradGradGradGradGradGradGradGradGrad
 Berny optimization.
 Using GEDIIS/GDIIS optimizer.
 FormGI is forming the generalized inverse of G from B-inverse, IUseBI=4.
 Internal  Forces:  Max     0.083505342 RMS     0.030263051
 Search for a local minimum.
 Step number   2 out of a maximum of   73
 All quantities printed in internal units (Hartrees-Bohrs-Radians)
 Mixed Optimization -- RFO/linear search
 Update second derivatives using D2CorX and points    1    2
 DE= -9.36D-02 DEPred=-9.64D-02 R= 9.71D-01
 TightC=F SS=  1.41D+00  RLast= 3.75D-01 DXNew= 5.0454D-01 1.1242D+00
 Trust test= 9.71D-01 RLast= 3.75D-01 DXMaxT set to 5.05D-01
 ITU=  1  0
 Use linear search instead of GDIIS.
 Linear search step of   0.593 exceeds DXMaxT=   0.505 but not scaled.
 Quartic linear search produced a step of  2.00000.
 Iteration  1 RMS(Cart)=  0.17332606 RMS(Int)=  0.01449646
 Iteration  2 RMS(Cart)=  0.01342854 RMS(Int)=  0.00742728
 Iteration  3 RMS(Cart)=  0.00024197 RMS(Int)=  0.00742544
 Iteration  4 RMS(Cart)=  0.00000344 RMS(Int)=  0.00742544
 Iteration  5 RMS(Cart)=  0.00000006 RMS(Int)=  0.00742544
 Variable       Old X    -DE/DX   Delta X   Delta X   Delta X     New X
                                 (Linear)    (Quad)   (Total)
    R1        3.85565   0.03992   0.19018   0.00000   0.19018   4.04583
    R2        3.85741   0.04322   0.19372   0.00000   0.19372   4.05113
    R3        4.36386   0.03095   0.11057   0.00000   0.11057   4.47443
    R4        3.84964   0.04211   0.17816   0.00000   0.17816   4.02780
    R5        4.63702   0.02597   0.08998   0.00000   0.08998   4.72700
    R6        4.64275   0.02708   0.10144   0.00000   0.10144   4.74419
    R7        2.50306  -0.07794  -0.13394   0.00000  -0.13394   2.36912
    R8        2.49987  -0.08085  -0.14031   0.00000  -0.14031   2.35957
    R9        2.50323  -0.07691  -0.13360   0.00000  -0.13360   2.36963
   R10        2.49638  -0.08351  -0.14729   0.00000  -0.14729   2.34910
   R11        2.50271  -0.07844  -0.13465   0.00000  -0.13465   2.36806
   R12        2.50049  -0.08123  -0.13908   0.00000  -0.13908   2.36141
    A1        1.59195  -0.00206   0.04230   0.00000   0.04258   1.63453
    A2        1.57634   0.00220   0.01108   0.00000   0.00974   1.58607
    A3        1.57969   0.00285   0.01778   0.00000   0.01887   1.59856
    A4        1.55465  -0.00219  -0.03229   0.00000  -0.03278   1.52188
    A5        1.59503   0.00580   0.04847   0.00000   0.04783   1.64286
    A6        1.54992  -0.00393  -0.04175   0.00000  -0.04241   1.50751
    A7        1.56235   0.00087  -0.01690   0.00000  -0.01712   1.54523
    A8        1.56228  -0.00225  -0.01703   0.00000  -0.01694   1.54534
    A9        1.53718  -0.01001  -0.06724   0.00000  -0.06681   1.47036
   A10        1.56483  -0.00282  -0.01193   0.00000  -0.01202   1.55281
   A11        1.60098   0.00818   0.06038   0.00000   0.06081   1.66180
   A12        1.57422   0.00338   0.00684   0.00000   0.00715   1.58136
   A13        1.95168   0.00991   0.08209   0.00000   0.06395   2.01563
   A14        1.98002   0.01376   0.13877   0.00000   0.12122   2.10124
   A15        1.92383   0.01489   0.02639   0.00000   0.00299   1.92682
   A16        1.94341   0.00604   0.06555   0.00000   0.04813   1.99154
   A17        1.98662   0.02201   0.15198   0.00000   0.13542   2.12204
   A18        1.92309   0.01248   0.02491   0.00000   0.00250   1.92559
   A19        1.94411   0.01032   0.06695   0.00000   0.05070   1.99481
   A20        1.98250   0.02280   0.14373   0.00000   0.12823   2.11073
   A21        1.92267   0.01054   0.02408   0.00000   0.00294   1.92562
   A22        3.15429  -0.00120   0.02540   0.00000   0.02546   3.17975
   A23        3.14660  -0.00426   0.01001   0.00000   0.00980   3.15640
   A24        3.15602   0.00505   0.02886   0.00000   0.02861   3.18463
   A25        3.13893  -0.00001  -0.00533   0.00000  -0.00476   3.13417
   A26        3.15095   0.00422   0.01871   0.00000   0.01876   3.16971
   A27        3.14526   0.00195   0.00733   0.00000   0.00787   3.15313
    D1        1.73678   0.01832   0.07531   0.00000   0.07873   1.81551
    D2       -0.45228  -0.02091  -0.11403   0.00000  -0.11729  -0.56957
    D3       -2.95125   0.02416   0.12403   0.00000   0.12757  -2.82368
    D4        1.14287  -0.01507  -0.06532   0.00000  -0.06844   1.07443
    D5        0.18668   0.02221   0.11670   0.00000   0.11970   0.30638
    D6       -2.00239  -0.01702  -0.07265   0.00000  -0.07631  -2.07870
    D7       -1.41417   0.01410   0.05660   0.00000   0.05997  -1.35420
    D8        2.67995  -0.02513  -0.13275   0.00000  -0.13604   2.54391
    D9       -0.90059  -0.01876  -0.09077   0.00000  -0.09301  -0.99361
   D10        1.28596   0.02044   0.09355   0.00000   0.09774   1.38370
   D11       -2.47745  -0.02103  -0.10289   0.00000  -0.10691  -2.58436
   D12       -0.29089   0.01817   0.08144   0.00000   0.08384  -0.20705
   D13        0.67866  -0.01594  -0.07387   0.00000  -0.07764   0.60102
   D14        2.86521   0.02325   0.11046   0.00000   0.11312   2.97833
   D15        2.24366  -0.01875  -0.08544   0.00000  -0.08826   2.15541
   D16       -1.85296   0.02045   0.09888   0.00000   0.10250  -1.75047
   D17        2.45170  -0.02087  -0.06816   0.00000  -0.07177   2.37993
   D18       -1.64817   0.01957   0.10968   0.00000   0.11223  -1.53594
   D19        0.85994  -0.01871  -0.11010   0.00000  -0.11292   0.74701
   D20        3.04325   0.02173   0.06774   0.00000   0.07108   3.11433
   D21       -0.70253  -0.01966  -0.09345   0.00000  -0.09677  -0.79930
   D22        1.48078   0.02078   0.08440   0.00000   0.08724   1.56802
   D23       -2.27657  -0.02291  -0.09993   0.00000  -0.10250  -2.37907
   D24       -0.09325   0.01753   0.07791   0.00000   0.08151  -0.01175
         Item               Value     Threshold  Converged?
 Maximum Force            0.083505     0.000450     NO 
 RMS     Force            0.030263     0.000300     NO 
 Maximum Displacement     0.463073     0.001800     NO 
 RMS     Displacement     0.168204     0.001200     NO 
 Predicted change in Energy=-9.289621D-02
 GradGradGradGradGradGradGradGradGradGradGradGradGradGradGradGradGradGrad

                          Input orientation:                          
 ---------------------------------------------------------------------
 Center     Atomic      Atomic             Coordinates (Angstroms)
 Number     Number       Type             X           Y           Z
 ---------------------------------------------------------------------
      1         78           0       -0.373695    0.336445    0.029706
      2          7           0       -0.307394   -1.802613    0.090892
      3          8           0        0.797311   -2.299063    0.414760
      4          8           0       -0.838754   -2.477268   -0.815513
      5          7           0       -0.308773    0.413858   -2.111678
      6          8           0        0.685531   -0.160929   -2.615046
      7          8           0       -1.321995    0.207475   -2.801648
      8         17           0       -2.739193    0.302123    0.127433
      9          7           0        1.753132    0.459698   -0.036317
     10          8           0        2.195968    1.291090   -0.862756
     11          8           0        2.427727    0.491158    1.015086
     12         35           0       -0.472723    2.835794    0.053034
     13         35           0       -0.521325    0.280662    2.535256
 ---------------------------------------------------------------------
                    Distance matrix (angstroms):
                    1          2          3          4          5
     1  Pt   0.000000
     2  N    2.140960   0.000000
     3  O    2.909540   1.253685   0.000000
     4  O    2.974501   1.248628   2.054760   0.000000
     5  N    2.143766   3.124749   3.868624   3.212403   0.000000
     6  O    2.892067   3.317096   3.709964   3.305630   1.253954
     7  O    2.988725   3.665605   4.595593   3.374329   1.243090
     8  Cl   2.367765   3.216348   4.399498   3.496545   3.306515
     9  N    2.131418   3.062679   2.954289   3.993844   2.925864
    10  O    2.882881   4.092342   4.059247   4.838625   2.933099
    11  O    2.973697   3.687331   3.286940   4.778341   4.155847
    12  Br   2.501419   4.641507   5.301942   5.396016   3.252481
    13  Br   2.510516   3.218807   3.590304   4.351390   4.653700
                    6          7          8          9         10
     6  O    0.000000
     7  O    2.049562   0.000000
     8  Cl   4.411841   3.255292   0.000000
     9  N    2.859160   4.143318   4.498070   0.000000
    10  O    2.731355   4.160480   5.129751   1.253123   0.000000
    11  O    4.079010   5.358018   5.246021   1.249607   2.054239
    12  Br   4.176189   3.972221   3.400282   3.257030   3.216628
    13  Br   5.308212   5.397127   3.273685   3.437760   4.466670
                   11         12         13
    11  O    0.000000
    12  Br   3.851685   0.000000
    13  Br   3.324475   3.562653   0.000000
 Stoichiometry    Br2ClN3O6Pt(2-)
 Framework group  C1[X(Br2ClN3O6Pt)]
 Deg. of freedom    33
 Full point group                 C1      NOp   1
 Largest Abelian subgroup         C1      NOp   1
 Largest concise Abelian subgroup C1      NOp   1
                         Standard orientation:                         
 ---------------------------------------------------------------------
 Center     Atomic      Atomic             Coordinates (Angstroms)
 Number     Number       Type             X           Y           Z
 ---------------------------------------------------------------------
      1         78           0        0.161553   -0.069845   -0.083609
      2          7           0        1.054382   -2.015432   -0.048168
      3          8           0        1.083927   -2.575093    1.073274
      4          8           0        2.112759   -2.236252   -0.672787
      5          7           0        2.046333    0.942899   -0.216591
      6          8           0        2.839319    0.673805    0.716770
      7          8           0        2.661486    1.034907   -1.292878
      8         17           0       -0.125549   -0.204537   -2.430041
      9          7           0        0.359507    0.124601    2.029670
     10          8           0        0.772098    1.245793    2.407843
     11          8           0       -0.532298   -0.292092    2.799454
     12         35           0       -0.968323    2.161198   -0.137675
     13         35           0       -2.065581   -1.225426    0.001229
 ---------------------------------------------------------------------
 Rotational constants (GHZ):      0.3766773      0.3649760      0.3093440
 Basis read from rwf:  (5D, 7F)
 Pseudo-potential data read from rwf file.
 There are   248 symmetry adapted cartesian basis functions of A   symmetry.
 There are   230 symmetry adapted basis functions of A   symmetry.
   230 basis functions,   465 primitive gaussians,   248 cartesian basis functions
    88 alpha electrons       88 beta electrons
       nuclear repulsion energy      2168.1466092357 Hartrees.
 NAtoms=   13 NActive=   13 NUniq=   13 SFac= 1.00D+00 NAtFMM=   60 NAOKFM=F Big=F
 Integral buffers will be    131072 words long.
 Raffenetti 2 integral format.
 Two-electron integral symmetry is turned on.
 ------------------------------------------------------------------------------
 Polarizable Continuum Model (PCM)
 =================================
 Model                : PCM (using non-symmetric T matrix).
 Atomic radii         : UFF (Universal Force Field).
 Polarization charges : Total charges.
 Charge compensation  : None.
 Solution method      : On-the-fly selection.
 Cavity type          : Scaled VdW (van der Waals Surface) (Alpha=1.100).
 Cavity algorithm     : GePol (No added spheres)
                        Default sphere list used, NSphG=   13.
                        Lebedev-Laikov grids with approx.  5.0 points / Ang**2.
                        Smoothing algorithm: Karplus/York (Gamma=1.0000).
                        Polarization charges: spherical gaussians, with
                                              point-specific exponents (IZeta= 3).
                        Self-potential: point-specific (ISelfS= 7).
                        Self-field    : sphere-specific E.n sum rule (ISelfD= 2).
 1st derivatives      : Analytical E(r).r(x)/FMM algorithm (CHGder, D1EAlg=3).
                        Cavity 1st derivative terms included.
 Solvent              : Water, Eps=  78.355300 Eps(inf)=   1.777849
 ------------------------------------------------------------------------------
 Spheres list:
 ISph  on   Nord     Re0    Alpha      Xe            Ye            Ze
    1  Pt      1    1.3770  1.100      0.161553     -0.069845     -0.083609
    2   N      2    1.8300  1.100      1.054382     -2.015432     -0.048168
    3   O      3    1.7500  1.100      1.083927     -2.575093      1.073274
    4   O      4    1.7500  1.100      2.112759     -2.236252     -0.672787
    5   N      5    1.8300  1.100      2.046333      0.942899     -0.216591
    6   O      6    1.7500  1.100      2.839319      0.673805      0.716770
    7   O      7    1.7500  1.100      2.661486      1.034907     -1.292878
    8  Cl      8    1.9735  1.100     -0.125549     -0.204537     -2.430041
    9   N      9    1.8300  1.100      0.359507      0.124601      2.029670
   10   O     10    1.7500  1.100      0.772098      1.245793      2.407843
   11   O     11    1.7500  1.100     -0.532298     -0.292092      2.799454
   12  Br     12    2.0945  1.100     -0.968323      2.161198     -0.137675
   13  Br     13    2.0945  1.100     -2.065581     -1.225426      0.001229
 ------------------------------------------------------------------------------
 One-electron integrals computed using PRISM.
   1 Symmetry operations used in ECPInt.
 ECPInt:  NShTT=    4465 NPrTT=   20734 LenC2=    4122 LenP2D=   13209.
 LDataN:  DoStor=T MaxTD1= 6 Len=  172
 NBasis=   230 RedAO= T EigKep=  4.23D-03  NBF=   230
 NBsUse=   230 1.00D-06 EigRej= -1.00D+00 NBFU=   230
 Defaulting to unpruned grid for atomic number  78.
 Initial guess from the checkpoint file:  "/home/scr/diego/Gau-27450.chk"
 B after Tr=     0.000000    0.000000    0.000000
         Rot=    0.991985    0.049267   -0.070693    0.092422 Ang=  14.52 deg.
 ExpMin= 2.90D-02 ExpMax= 1.13D+05 ExpMxC= 1.70D+04 IAcc=3 IRadAn=         5 AccDes= 0.00D+00
 Harris functional with IExCor=  402 and IRadAn=       5 diagonalized for initial guess.
 HarFok:  IExCor=  402 AccDes= 0.00D+00 IRadAn=         5 IDoV= 1 UseB2=F ITyADJ=14
 ICtDFT=  3500011 ScaDFX=  1.000000  1.000000  1.000000  1.000000
 Defaulting to unpruned grid for atomic number  78.
 Defaulting to unpruned grid for atomic number  78.
 Defaulting to unpruned grid for atomic number  78.
 Defaulting to unpruned grid for atomic number  78.
 Defaulting to unpruned grid for atomic number  78.
 Defaulting to unpruned grid for atomic number  78.
 Defaulting to unpruned grid for atomic number  78.
 Defaulting to unpruned grid for atomic number  78.
 FoFCou: FMM=F IPFlag=           0 FMFlag=      100000 FMFlg1=           0
         NFxFlg=           0 DoJE=T BraDBF=F KetDBF=T FulRan=T
         wScrn=  0.000000 ICntrl=     500 IOpCl=  0 I1Cent=   200000004 NGrid=           0
         NMat0=    1 NMatS0=      1 NMatT0=    0 NMatD0=    1 NMtDS0=    0 NMtDT0=    0
 Petite list used in FoFCou.
 Keep R1 ints in memory in canonical form, NReq=360788779.
 Requested convergence on RMS density matrix=1.00D-08 within 128 cycles.
 Requested convergence on MAX density matrix=1.00D-06.
 Requested convergence on             energy=1.00D-06.
 No special actions if energy rises.
 Defaulting to unpruned grid for atomic number  78.
 Defaulting to unpruned grid for atomic number  78.
 Defaulting to unpruned grid for atomic number  78.
 Defaulting to unpruned grid for atomic number  78.
 Defaulting to unpruned grid for atomic number  78.
 Defaulting to unpruned grid for atomic number  78.
 Defaulting to unpruned grid for atomic number  78.
 Defaulting to unpruned grid for atomic number  78.
 Inv3:  Mode=1 IEnd=     9590832.
 Iteration    1 A*A^-1 deviation from unit magnitude is 6.44D-15 for    502.
 Iteration    1 A*A^-1 deviation from orthogonality  is 5.70D-15 for   1016     98.
 Iteration    1 A^-1*A deviation from unit magnitude is 7.33D-15 for     63.
 Iteration    1 A^-1*A deviation from orthogonality  is 2.13D-14 for   1451   1046.
 Error on total polarization charges =  0.00987
 SCF Done:  E(RB3LYP) =  -6342.17929134     A.U. after   17 cycles
            NFock= 17  Conv=0.54D-08     -V/T= 2.0148
   1 Symmetry operations used in ECPInt.
 ECPInt:  NShTT=    4465 NPrTT=   20734 LenC2=    4122 LenP2D=   13209.
 LDataN:  DoStor=T MaxTD1= 7 Len=  274
 D1PCM: PCM CHGder 1st derivatives, ID1Alg=3 FixD1E=F DoIter=F DoCFld=F I1PDM=0.
 Calling FoFJK, ICntrl=      2127 FMM=F ISym2X=0 I1Cent= 0 IOpClX= 0 NMat=1 NMatS=1 NMatT=0.
 Defaulting to unpruned grid for atomic number  78.
 Defaulting to unpruned grid for atomic number  78.
 Defaulting to unpruned grid for atomic number  78.
 Defaulting to unpruned grid for atomic number  78.
 Defaulting to unpruned grid for atomic number  78.
 Defaulting to unpruned grid for atomic number  78.
 Defaulting to unpruned grid for atomic number  78.
 Defaulting to unpruned grid for atomic number  78.
 ***** Axes restored to original set *****
 -------------------------------------------------------------------
 Center     Atomic                   Forces (Hartrees/Bohr)
 Number     Number              X              Y              Z
 -------------------------------------------------------------------
      1       78          -0.003268232   -0.002896720    0.006349580
      2        7           0.067770361   -0.065007885   -0.076177334
      3        8          -0.014017850    0.032162695    0.042491765
      4        8          -0.043615657    0.031512781    0.019006088
      5        7          -0.004426980   -0.101216269   -0.068043559
      6        8           0.019897517    0.033824338    0.030964629
      7        8          -0.020146588    0.046087714    0.029974810
      8       17          -0.012525960   -0.000422287   -0.003323645
      9        7           0.060092012    0.102043970    0.031457160
     10        8          -0.026752222   -0.035595072   -0.026694454
     11        8          -0.027282589   -0.050670817    0.003180345
     12       35           0.001039855    0.012765041   -0.001361978
     13       35           0.003236333   -0.002587489    0.012176593
 -------------------------------------------------------------------
 Cartesian Forces:  Max     0.102043970 RMS     0.040295743

 GradGradGradGradGradGradGradGradGradGradGradGradGradGradGradGradGradGrad
 Berny optimization.
 Using GEDIIS/GDIIS optimizer.
 FormGI is forming the generalized inverse of G from B-inverse, IUseBI=4.
 Internal  Forces:  Max     0.056902650 RMS     0.018232863
 Search for a local minimum.
 Step number   3 out of a maximum of   73
 All quantities printed in internal units (Hartrees-Bohrs-Radians)
 Mixed Optimization -- RFO/linear search
 Update second derivatives using D2CorX and points    2    3
 ITU=  0  1  0
 Use linear search instead of GDIIS.
     Eigenvalues ---    0.00230   0.00230   0.00230   0.01974   0.02035
     Eigenvalues ---    0.02238   0.07823   0.08109   0.08445   0.08504
     Eigenvalues ---    0.08841   0.09144   0.15872   0.16721   0.16856
     Eigenvalues ---    0.17921   0.19509   0.19719   0.20378   0.20380
     Eigenvalues ---    0.21838   0.24770   0.25000   0.25000   0.25000
     Eigenvalues ---    0.25001   0.32161   0.51893   0.52948   0.52948
     Eigenvalues ---    0.52948   0.52948   0.53610
 RFO step:  Lambda=-1.02344479D-01 EMin= 2.29855462D-03
 Quartic linear search produced a step of  0.28563.
 Iteration  1 RMS(Cart)=  0.06672759 RMS(Int)=  0.00745939
 Iteration  2 RMS(Cart)=  0.00623554 RMS(Int)=  0.00399477
 Iteration  3 RMS(Cart)=  0.00001773 RMS(Int)=  0.00399474
 Iteration  4 RMS(Cart)=  0.00000004 RMS(Int)=  0.00399474
 Variable       Old X    -DE/DX   Delta X   Delta X   Delta X     New X
                                 (Linear)    (Quad)   (Total)
    R1        4.04583   0.00121   0.05432  -0.01244   0.04188   4.08771
    R2        4.05113   0.00619   0.05533   0.00438   0.05971   4.11084
    R3        4.47443   0.01238   0.03158   0.03085   0.06244   4.53686
    R4        4.02780   0.00672   0.05089   0.00734   0.05823   4.08602
    R5        4.72700   0.01271   0.02570   0.03689   0.06259   4.78958
    R6        4.74419   0.01201   0.02897   0.03353   0.06250   4.80669
    R7        2.36912  -0.01413  -0.03826  -0.01273  -0.05099   2.31813
    R8        2.35957  -0.01227  -0.04008  -0.00910  -0.04917   2.31039
    R9        2.36963  -0.01214  -0.03816  -0.00944  -0.04760   2.32203
   R10        2.34910  -0.00787  -0.04207  -0.00113  -0.04320   2.30590
   R11        2.36806  -0.01547  -0.03846  -0.01495  -0.05341   2.31465
   R12        2.36141  -0.01332  -0.03972  -0.01092  -0.05065   2.31077
    A1        1.63453  -0.01157   0.01216  -0.06111  -0.04898   1.58555
    A2        1.58607   0.00167   0.00278   0.00723   0.00935   1.59542
    A3        1.59856  -0.00007   0.00539  -0.00086   0.00538   1.60394
    A4        1.52188   0.00310  -0.00936   0.01263   0.00322   1.52509
    A5        1.64286  -0.00731   0.01366  -0.03249  -0.01865   1.62421
    A6        1.50751   0.00933  -0.01211   0.04276   0.03081   1.53831
    A7        1.54523   0.00537  -0.00489   0.02449   0.01978   1.56500
    A8        1.54534   0.00134  -0.00484   0.00815   0.00342   1.54876
    A9        1.47036   0.00590  -0.01908   0.02686   0.00789   1.47826
   A10        1.55281  -0.00294  -0.00343  -0.01447  -0.01794   1.53487
   A11        1.66180  -0.00757   0.01737  -0.03510  -0.01759   1.64421
   A12        1.58136   0.00316   0.00204   0.02426   0.02631   1.60767
   A13        2.01563  -0.02223   0.01827  -0.03721  -0.02865   1.98698
   A14        2.10124  -0.02867   0.03462  -0.06171  -0.03670   2.06453
   A15        1.92682   0.05690   0.00086   0.21733   0.20730   2.13412
   A16        1.99154  -0.02031   0.01375  -0.03009  -0.02583   1.96571
   A17        2.12204  -0.02798   0.03868  -0.06197  -0.03262   2.08942
   A18        1.92559   0.05451   0.00072   0.21012   0.20017   2.12576
   A19        1.99481  -0.01637   0.01448  -0.01630  -0.01257   1.98223
   A20        2.11073  -0.02663   0.03663  -0.05510  -0.02908   2.08164
   A21        1.92562   0.05153   0.00084   0.20486   0.19364   2.11926
   A22        3.17975  -0.00620   0.00727  -0.03663  -0.02920   3.15055
   A23        3.15640  -0.00848   0.00280  -0.04848  -0.04576   3.11064
[...]
   D16       -0.83190   0.00000   0.00000   0.00047   0.00047  -0.83143
   D17        2.22895   0.00000   0.00000  -0.00015  -0.00015   2.22880
   D18       -0.89186   0.00000   0.00000  -0.00010  -0.00010  -0.89197
   D19        0.69780   0.00000   0.00000  -0.00022  -0.00022   0.69759
   D20       -2.42302   0.00000   0.00000  -0.00017  -0.00017  -2.42319
   D21       -0.88979   0.00000   0.00000  -0.00026  -0.00026  -0.89005
   D22        2.27257   0.00000   0.00000  -0.00021  -0.00021   2.27236
   D23       -2.44984   0.00000   0.00000  -0.00026  -0.00026  -2.45010
   D24        0.71253   0.00000   0.00000  -0.00022  -0.00022   0.71231
         Item               Value     Threshold  Converged?
 Maximum Force            0.000012     0.000450     YES
 RMS     Force            0.000004     0.000300     YES
 Maximum Displacement     0.000807     0.001800     YES
 RMS     Displacement     0.000209     0.001200     YES
 Predicted change in Energy=-6.358418D-09
 Optimization completed.
    -- Stationary point found.
                           ----------------------------
                           !   Optimized Parameters   !
                           ! (Angstroms and Degrees)  !
 --------------------------                            --------------------------
 ! Name  Definition              Value          Derivative Info.                !
 --------------------------------------------------------------------------------
 ! R1    R(1,2)                  2.1206         -DE/DX =    0.0                 !
 ! R2    R(1,5)                  2.1098         -DE/DX =    0.0                 !
 ! R3    R(1,8)                  2.4576         -DE/DX =    0.0                 !
 ! R4    R(1,9)                  2.1085         -DE/DX =    0.0                 !
 ! R5    R(1,12)                 2.6074         -DE/DX =    0.0                 !
 ! R6    R(1,13)                 2.6053         -DE/DX =    0.0                 !
 ! R7    R(2,3)                  1.2123         -DE/DX =    0.0                 !
 ! R8    R(2,4)                  1.2167         -DE/DX =    0.0                 !
 ! R9    R(5,6)                  1.2186         -DE/DX =    0.0                 !
 ! R10   R(5,7)                  1.2118         -DE/DX =    0.0                 !
 ! R11   R(9,10)                 1.2172         -DE/DX =    0.0                 !
 ! R12   R(9,11)                 1.2135         -DE/DX =    0.0                 !
 ! A1    A(2,1,5)               87.7413         -DE/DX =    0.0                 !
 ! A2    A(2,1,8)               88.2015         -DE/DX =    0.0                 !
 ! A3    A(2,1,9)               90.3602         -DE/DX =    0.0                 !
 ! A4    A(2,1,13)              91.9156         -DE/DX =    0.0                 !
 ! A5    A(5,1,8)               90.6159         -DE/DX =    0.0                 !
 ! A6    A(5,1,9)               88.1738         -DE/DX =    0.0                 !
 ! A7    A(5,1,12)              90.9414         -DE/DX =    0.0                 !
 ! A8    A(8,1,12)              92.0535         -DE/DX =    0.0                 !
 ! A9    A(8,1,13)              89.8325         -DE/DX =    0.0                 !
 ! A10   A(9,1,12)              89.358          -DE/DX =    0.0                 !
 ! A11   A(9,1,13)              91.3691         -DE/DX =    0.0                 !
 ! A12   A(12,1,13)             89.3996         -DE/DX =    0.0                 !
 ! A13   A(1,2,3)              119.093          -DE/DX =    0.0                 !
 ! A14   A(1,2,4)              116.5633         -DE/DX =    0.0                 !
 ! A15   A(3,2,4)              124.3409         -DE/DX =    0.0                 !
 ! A16   A(1,5,6)              116.0635         -DE/DX =    0.0                 !
 ! A17   A(1,5,7)              119.6791         -DE/DX =    0.0                 !
 ! A18   A(6,5,7)              124.256          -DE/DX =    0.0                 !
 ! A19   A(1,9,10)             117.0919         -DE/DX =    0.0                 !
 ! A20   A(1,9,11)             118.7906         -DE/DX =    0.0                 !
 ! A21   A(10,9,11)            124.1059         -DE/DX =    0.0                 !
 ! A22   L(2,1,12,5,-1)        178.6827         -DE/DX =    0.0                 !
 ! A23   L(5,1,13,2,-1)        179.657          -DE/DX =    0.0                 !
 ! A24   L(8,1,9,2,-1)         178.5617         -DE/DX =    0.0                 !
 ! A25   L(2,1,12,5,-2)        180.2397         -DE/DX =    0.0                 !
 ! A26   L(5,1,13,2,-2)        179.5401         -DE/DX =    0.0                 !
 ! A27   L(8,1,9,2,-2)         178.8459         -DE/DX =    0.0                 !
 ! D1    D(5,1,2,3)            140.5794         -DE/DX =    0.0                 !
 ! D2    D(5,1,2,4)            -38.8422         -DE/DX =    0.0                 !
 ! D3    D(8,1,2,3)           -128.7329         -DE/DX =    0.0                 !
 ! D4    D(8,1,2,4)             51.8455         -DE/DX =    0.0                 !
 ! D5    D(9,1,2,3)             52.4212         -DE/DX =    0.0                 !
 ! D6    D(9,1,2,4)           -127.0004         -DE/DX =    0.0                 !
 ! D7    D(13,1,2,3)           -38.9607         -DE/DX =    0.0                 !
 ! D8    D(13,1,2,4)           141.6176         -DE/DX =    0.0                 !
 ! D9    D(2,1,5,6)            -47.0014         -DE/DX =    0.0                 !
 ! D10   D(2,1,5,7)            132.5755         -DE/DX =    0.0                 !
 ! D11   D(8,1,5,6)           -135.177          -DE/DX =    0.0                 !
 ! D12   D(8,1,5,7)             44.3998         -DE/DX =    0.0                 !
 ! D13   D(9,1,5,6)             43.4313         -DE/DX =    0.0                 !
 ! D14   D(9,1,5,7)           -136.9918         -DE/DX =    0.0                 !
 ! D15   D(12,1,5,6)           132.759          -DE/DX =    0.0                 !
 ! D16   D(12,1,5,7)           -47.6642         -DE/DX =    0.0                 !
 ! D17   D(2,1,9,10)           127.7097         -DE/DX =    0.0                 !
 ! D18   D(2,1,9,11)           -51.1            -DE/DX =    0.0                 !
 ! D19   D(5,1,9,10)            39.9811         -DE/DX =    0.0                 !
 ! D20   D(5,1,9,11)          -138.8287         -DE/DX =    0.0                 !
 ! D21   D(12,1,9,10)          -50.9814         -DE/DX =    0.0                 !
 ! D22   D(12,1,9,11)          130.2089         -DE/DX =    0.0                 !
 ! D23   D(13,1,9,10)         -140.3655         -DE/DX =    0.0                 !
 ! D24   D(13,1,9,11)           40.8248         -DE/DX =    0.0                 !
 --------------------------------------------------------------------------------
 GradGradGradGradGradGradGradGradGradGradGradGradGradGradGradGradGradGrad

 1\1\GINC-NEQC17\Freq\RB3LYP\Gen\Br2Cl1N3O6Pt1(2-)\DIEGO\18-Aug-2021\0\
 \#N Geom=AllCheck Guess=TCheck SCRF=Check GenChk RB3LYP/ChkBas Freq\\E
 strutura 58\\-2,1\Pt,-0.3656228209,0.3342215991,0.0115138739\N,-0.0990
 540935,-1.76951194,0.0057519664\O,0.6312945319,-2.2733875745,0.8317691
 665\O,-0.696280472,-2.3912670258,-0.8527514491\N,-0.3267583381,0.26110
 37379,-2.0967099355\O,0.5706810402,-0.3970350627,-2.5931714469\O,-1.17
 38738559,0.8491193719,-2.7332001193\Cl,-2.7928472666,-0.0510742696,0.0
 065711954\N,1.7240472719,0.6124749939,-0.0268562465\O,2.1701958755,1.3
 429895782,-0.8921979999\O,2.4066414609,0.0272584733,0.7881545028\Br,-0
 .6816761115,2.921867959,-0.0411845213\Br,-0.3909297618,0.4116690194,2.
 6155186934\\Version=EM64L-G09RevD.01\State=1-A\HF=-6342.2810788\RMSD=4
 .332e-09\RMSF=3.749e-05\ZeroPoint=0.0388621\Thermal=0.0554182\Dipole=0
 .3742264,0.3234657,0.3346516\DipoleDeriv=0.9078958,0.1302421,-0.093548
 6,0.0954714,1.1357209,0.0935569,-0.136655,0.0962066,1.1137853,1.146654
 1,-0.2738101,0.8387773,-0.1492843,3.1332816,0.0640937,0.8514453,0.1551
 766,1.4654858,-0.6594764,0.5814237,-0.4303625,0.4215792,-1.9311043,0.3
 631834,-0.4220755,0.4342514,-0.8027018,-0.5821944,-0.2622042,-0.360517
 9,-0.1834701,-2.0143031,-0.368694,-0.3943839,-0.6288543,-0.7781208,1.5
 950629,-0.8411227,0.0438391,-0.8390268,1.028878,0.0471073,0.1649032,0.
 0217573,3.1064543,-0.8635587,0.4528459,0.5591609,0.4447615,-0.5886443,
 -0.4452159,0.2909576,-0.2673031,-1.8418988,-0.8682223,0.3822566,-0.558
 2663,0.3848781,-0.5756905,0.3293815,-0.4729017,0.2553046,-2.0752223,-1
 .5275002,-0.1785426,0.0449291,-0.2478434,-0.2812465,0.0252117,-0.01427
 74,-0.0222633,-0.2448165,2.8580502,0.2217127,0.1040187,0.155448,1.1487
 929,-0.8290962,0.0711585,-0.8529982,1.4429465,-1.6412985,-0.4381409,0.
 2869296,-0.4598944,-0.7605728,0.4436787,0.4438695,0.5252099,-0.7858294
 ,-1.9079645,0.1052766,-0.4391944,0.2037734,-0.5026843,0.3267741,-0.442
 4513,0.3048702,-0.786797,-0.2395474,0.1556725,-0.0021568,0.2032227,-1.
 5680363,-0.0145475,-0.0005465,0.0502687,-0.2182387,-0.2179005,-0.03560
 95,0.0063918,-0.0296153,-0.2243914,-0.0354338,0.0609573,-0.0716262,-1.
 5950466\Polar=199.7104864,-9.3311247,225.4331952,7.7459352,-4.5273508,
 232.1495266\PG=C01 [X(Br2Cl1N3O6Pt1)]\NImag=0\\0.25992850,-0.01191630,
 0.23241268,-0.00001311,-0.00055499,0.24668221,-0.04548721,0.00725209,0
 .01262071,0.45964582,0.00878857,-0.06149120,-0.00423262,-0.02500984,0.
 54758057,0.01335544,-0.00244084,-0.03704769,0.37916504,0.03177607,0.63
 578005,0.00459787,0.00436913,-0.01255387,-0.24404773,0.13967376,-0.217
 10729,0.28646325,0.01452192,-0.00443678,0.01759734,0.14398685,-0.22057
 443,0.15219860,-0.14331184,0.18879695,-0.00949370,0.00382706,0.0002305
 2,-0.21593866,0.14550458,-0.29661373,0.30584250,-0.15073614,0.37911238
 ,0.00709727,-0.00241780,-0.00710092,-0.17463020,-0.11583677,-0.1737790
 1,-0.04344252,-0.01575147,-0.08138292,0.21323136,-0.01351252,-0.010099
 13,-0.01690033,-0.12213915,-0.26371128,-0.18925222,-0.00159713,0.04905
 335,0.00285159,0.13369740,0.23674282,-0.00998348,-0.00581817,0.0008401
 4,-0.17401067,-0.18110549,-0.30217592,-0.07897422,-0.01521413,-0.08229
 349,0.25922133,0.20358090,0.38474066,-0.03734287,-0.01357136,0.0069821
 2,-0.00313064,-0.00288588,-0.00561760,0.00122516,0.00100189,0.00049855
 ,0.00040153,0.00111010,0.00561117,0.66971115,-0.01375212,-0.04597606,-
 0.00557703,0.00302552,-0.00118005,0.01270525,-0.00079404,-0.00096897,-
 0.00149031,-0.00042851,-0.00246875,-0.00309121,-0.36269292,0.41998729,
 0.00765907,-0.00667508,-0.06745382,-0.00067537,0.02826073,-0.00180939,
 0.00208372,-0.00843054,0.00206983,-0.00163065,-0.00979103,-0.00610834,
 0.03959544,-0.01709698,0.56356749,-0.00012354,0.00997796,0.00444318,0.
 00118775,0.00432901,0.00154906,-0.00009531,-0.00145808,0.00041515,-0.0
 0096180,-0.00262810,-0.00241872,-0.31944291,0.19558231,0.15092052,0.41
 091243,0.01045839,0.00625300,-0.00359964,-0.00383605,-0.00596213,-0.00
 390902,0.00116279,0.00122139,0.00088213,0.00027845,0.00198294,0.006702
 66,0.19579505,-0.19621647,-0.11300666,-0.27955587,0.23016488,0.0174197
 5,-0.01266751,-0.00829851,0.00010555,-0.00890167,-0.00177087,-0.000493
 64,0.00336813,-0.00056472,0.00111583,0.00518274,0.00270628,0.16036809,
 -0.11954487,-0.21812485,-0.15748503,0.11773364,0.18816751,-0.00045223,
 0.00992306,-0.00532625,0.00096805,-0.00177611,0.00118740,-0.00048853,0
 .00048027,-0.00005284,0.00031376,0.00039068,-0.00117590,-0.31040195,0.
 17868011,-0.18940320,-0.08975440,0.07785934,-0.02039498,0.39928204,0.0
 0985239,0.00682841,0.00376405,0.00000453,0.00182794,-0.00108574,-0.000
 04410,-0.00012114,-0.00010953,-0.00064488,-0.00067955,0.00020412,0.177
 92451,-0.17714720,0.12863506,0.07841591,-0.03620562,0.01552027,-0.2628
 7195,0.20645081,-0.01963402,0.01355021,-0.00594724,-0.00019101,-0.0088
 6021,-0.00092294,-0.00065046,0.00319865,-0.00016216,0.00102716,0.00383
 325,0.00171378,-0.19591571,0.13421863,-0.27892013,-0.00142271,0.001825
 02,0.04963276,0.21339456,-0.14672594,0.24824019,-0.07444508,-0.0067958
 7,-0.00078477,-0.00249763,0.00176480,0.00127505,0.00043041,0.00041269,
 -0.00001344,-0.00143376,0.00098835,-0.00002565,-0.00199496,0.00028491,
 0.00058968,0.00058584,-0.00020561,0.00036237,-0.00097384,-0.00038266,0
 .00169632,0.08880618,-0.00857934,-0.01714312,0.00015664,0.00168458,-0.
 00520085,-0.00413580,-0.00010387,0.00107108,0.00102680,0.00419358,0.00
 164391,0.00185933,0.00116844,-0.00088729,0.00078543,-0.00051413,0.0003
 4913,0.00003736,-0.00124763,0.00017210,0.00064282,0.01077187,0.0163691
 0,-0.00139777,0.00156345,-0.01724413,-0.00157173,-0.00093765,-0.001245
 53,0.00063933,0.00005824,0.00061786,0.00197400,-0.00062458,0.00062111,
 0.00013076,0.00310122,-0.00469290,0.00034416,-0.00083077,0.00075834,0.
 00497219,-0.00085372,-0.00021704,-0.00082868,0.00048480,0.01767418,-0.
 06937007,0.00289522,0.00805495,0.00244911,-0.02681919,0.00492803,-0.00
 717324,0.00775578,-0.00554523,0.00036287,0.00826075,0.00112760,-0.0017
 1892,-0.00326909,-0.02687663,-0.00549884,0.00249245,0.00837174,0.00244
 286,-0.00086447,0.00832139,0.02141788,0.00264260,0.00016406,0.56344493
 ,0.00250194,-0.04667964,-0.01122882,-0.01292899,-0.00753718,-0.0039009
 8,0.00369696,0.00389877,0.00084506,0.00238790,0.00155010,0.00210054,0.
 00348108,-0.00320758,-0.00641516,-0.00585184,0.00069182,0.00199319,0.0
 0016700,0.00082676,0.00220706,-0.00027937,0.00806461,0.00066749,-0.003
 81549,0.45325087,0.00691222,-0.01186284,-0.04067120,0.00488849,-0.0035
 3880,0.00584248,-0.00604398,0.00080012,-0.00378976,-0.00097747,0.00042
 454,-0.00193845,-0.01447117,0.00225218,-0.00091760,0.00478467,-0.00047
 312,-0.00193047,0.00156035,-0.00110512,-0.00106192,-0.00165718,0.00053
 501,0.00778262,0.05892516,-0.37054160,0.63408518,-0.00472484,-0.017181
 75,0.01566347,-0.00112509,0.00823226,-0.00070622,0.00145921,-0.0032020
 4,0.00147952,-0.00002328,-0.00300516,-0.00065585,-0.00228492,0.0007781
 3,0.00926005,0.00207095,-0.00211111,-0.00477504,-0.00077413,-0.0000029
 3,-0.00359125,-0.01341920,-0.00103374,-0.00146382,-0.20034759,-0.12676
 767,0.13992023,0.17114755,-0.00602894,0.00260929,0.01180059,0.00203296
 ,0.00307424,0.00088081,-0.00114090,-0.00178188,0.00001870,-0.00045090,
 -0.00087549,-0.00069285,-0.00076191,0.00071051,0.00416946,0.00076126,-
 0.00142326,-0.00258382,-0.00087048,0.00000261,-0.00186966,-0.00577562,
 -0.00175266,-0.00093238,-0.11966793,-0.23601255,0.21442758,0.11957751,
 0.27718691,0.00334435,0.01181695,0.00059071,-0.00170206,-0.00189427,-0
 .00195786,0.00211973,0.00101954,0.00083296,0.00051107,0.00088202,0.001
 12938,0.00474684,-0.00494728,-0.00651571,-0.00745885,0.00028301,0.0024
 6398,-0.00062812,0.00131224,0.00175377,0.00646000,0.00023201,-0.000681
 10,0.13201883,0.21390547,-0.30660107,-0.13182525,-0.30203690,0.3887902
 9,-0.00983141,0.01195046,-0.02108390,0.00056225,0.01015804,-0.00226793
 ,0.00200625,-0.00606673,0.00268464,-0.00069652,-0.00393839,-0.00052153
 ,-0.00060767,0.00068628,0.00912875,0.00119376,-0.00123480,-0.00350520,
 -0.00049464,0.00041995,-0.00347570,-0.01481015,-0.00372879,0.00157177,
 -0.29677066,0.13386410,-0.19881506,0.04818835,0.00875092,-0.00685814,0
 .27232543,0.00085919,0.00918670,0.00792639,0.00553120,-0.00378507,0.00
 572638,-0.00705946,-0.00194264,-0.00321485,-0.00156664,0.00027104,-0.0
 0220134,-0.00140288,0.00120036,-0.00009593,0.00153946,-0.00000122,-0.0
 0034125,0.00013375,-0.00044640,-0.00001566,0.00282373,-0.00082947,-0.0
 0057487,0.12970334,-0.17469219,0.16795869,0.02261185,-0.04206037,0.080
 19631,-0.15275156,0.21229514,-0.00664307,0.00824776,0.00105146,-0.0023
 4750,0.00511750,-0.00400681,0.00401684,-0.00147180,0.00167505,0.000308
 45,-0.00149717,0.00082312,0.00171823,-0.00012320,0.00204111,-0.0008375
 4,-0.00072138,-0.00053505,0.00001458,0.00014310,-0.00019145,-0.0045532
 6,-0.00147896,-0.00059381,-0.19237147,0.16889680,-0.28798978,-0.024632
 07,0.07851529,-0.08147093,0.22062812,-0.25458448,0.36907098,-0.0149266
 6,0.00521585,-0.00040808,0.00707293,-0.00177735,-0.00088507,-0.0015259
 7,0.00050774,0.00001269,-0.00058232,0.00259232,0.00145575,-0.00105130,
 0.00110873,-0.00079213,0.00044875,-0.00039307,0.00017446,0.00078702,-0
 .00114780,-0.00098303,-0.00141462,-0.00464050,-0.00007436,-0.00624348,
 0.00140977,0.00576262,-0.00086531,0.00441471,-0.00124524,0.00074474,0.
 00000564,-0.00067921,0.01806023,0.00656687,-0.05653337,0.00092888,-0.0
 0285994,0.02036041,0.00130676,0.00588973,-0.01378029,0.00489780,-0.002
 55932,-0.01385104,-0.00588246,0.00009357,-0.00104208,-0.00076244,-0.00
 010318,0.00025132,-0.00034560,-0.00005054,-0.00067454,-0.00059725,-0.0
 0288473,-0.00276529,0.00022762,0.00056151,-0.00086008,-0.00051259,0.00
 212303,0.00009591,-0.00038042,0.00060833,0.00045460,-0.00016725,-0.007
 84026,0.06872591,-0.00153736,0.00137950,-0.01491683,-0.00048284,-0.000
 58160,0.00649824,0.00068194,-0.00086399,-0.00059809,0.00049777,0.00162
 704,-0.00045235,-0.00246720,-0.00149787,-0.00367507,0.00069456,0.00006
 008,0.00068816,0.00100256,-0.00299628,0.00092754,-0.00005253,0.0005828
 0,-0.00073773,0.00165167,0.00132303,-0.00126285,0.00103151,-0.00158079
 ,0.00120711,0.00002335,-0.00052384,0.00050985,-0.00061128,-0.00169492,
 0.01249439,-0.01491975,0.00029931,-0.00049354,-0.00096740,0.00115870,-
 0.00109690,0.00059116,0.00112301,0.00149376,0.00036360,-0.00021915,0.0
 0035018,0.00663830,0.00079068,0.00014076,-0.00052269,-0.00070998,-0.00
 126390,-0.00045400,-0.00065849,0.00142445,-0.00025108,-0.00061306,-0.0
 0445990,-0.00299484,0.00213460,-0.00078889,0.00069831,-0.00084068,0.00
 051683,-0.00180973,-0.00042763,0.00537791,-0.00050401,0.00045494,-0.00
 043213,0.01413213,0.00023995,-0.01493078,-0.00008048,0.00325625,-0.003
 40098,0.00013074,-0.00074103,-0.00043542,-0.00430289,-0.00090104,0.000
 44109,-0.00044188,0.00074029,0.00719629,0.00042314,-0.00049470,-0.0011
 0578,0.00054940,-0.00081750,-0.00083418,-0.00140692,-0.00072250,0.0009
 0873,-0.00134884,0.00012453,0.00070629,0.00163596,-0.00001840,0.000226
 72,-0.00038869,0.00128217,0.00034951,-0.00087622,0.00054424,-0.0003814
 6,0.00476685,-0.00249226,0.01125999,0.00001170,-0.00036550,-0.05781560
 ,0.00014004,-0.00060657,-0.00057001,0.00043939,-0.00152404,-0.00051666
 ,0.00021536,-0.00031673,0.00039408,-0.00117950,0.00109149,0.02053937,0
 .00647154,-0.00494593,-0.01319255,-0.00515033,0.00329751,-0.01484514,-
 0.00246790,-0.00072824,-0.00204186,0.00122989,0.00014791,-0.00154718,0
 .00029472,-0.00011604,0.00045849,0.00249082,-0.00025556,-0.00038374,-0
 .00172712,0.00298187,-0.00068236,-0.00076861,0.00133985,0.07020318\\-0
 .00000128,-0.00000419,0.00001462,-0.00002506,-0.00000126,-0.00002305,-
 0.00005090,-0.00001566,-0.00000988,-0.00000641,0.00000703,-0.00005251,
 0.00006560,0.00001597,-0.00000495,0.00006245,0.00002156,0.00000606,0.0
 0006444,0.00003759,-0.00002711,-0.00002325,0.00001630,-0.00008526,0.00
 000238,-0.00001716,0.00003952,0.00002180,-0.00001691,0.00008407,-0.000
 03434,-0.00002587,0.00006436,0.00000994,0.00001037,0.00000973,-0.00008
 536,-0.00002777,-0.00001562\\\@


 I WOULD TAKE COUNSEL OF MYSELF.
 I WOULD STOP AND LOOK WITHIN
 AND LOOKING WITHIN, LOOK BACK, ALSO
 THAT I MAY LOOK AHEAD WITH CLEARER UNDERSTANDING
 OF THE WAY I HAVE BEEN MOVING, AND IN WHAT DIRECTION.
 I NEED TO KNOW IF I AM GOING FORWARD OR RETREATING,
 WHETHER I HAVE BEEN WASTING, OR ENJOYING
 THE PRECIOUS MOMENTS OF LIFE.  THERE HAVE BEEN FRICTIONS,
 ANNOYANCES AND SOMETIMES WRATH,
 BUT WERE THEY BECAUSE I WAS RIGHT AND OTHERS WRONG.....
 HAVE I HAD MY THOUGHTS TOO SHARPLY FOCUSED
 ON THAT WHICH PLEASED ME, SERVED MY SELF-ESTEEM,
 UNDERGIRDED MY SECURITY,
 OF WHICH I DID NOT INQUIRE WHETHER IT SERVED OR HAMPERED OTHERS.....
 HAVE I BEEN TRYING TO STOP THE CLOCK
 TO HOLD THE WORLD
 IN PERPETUATION OF WHAT WAS AN IS ALREADY SLIPPING AWAY.....
 HAVE I BEEN CRITICAL OF OTHERS FOR WHAT REALLY NEEDED CHANGING IN ME...
 LET ME INDEED TAKE COUNSEL OF MYSELF
 AND SET MY DIRECTIONS STRAIGHT.

                          R.T. WESTON AS ADAPTED BY D. OSBORN 1967
 Job cpu time:       0 days  0 hours 26 minutes 23.9 seconds.
 File lengths (MBytes):  RWF=    174 Int=      0 D2E=      0 Chk=      9 Scr=      1
 Normal termination of Gaussian 09 at Wed Aug 18 10:58:02 2021.
