 Entering Gaussian System, Link 0=g09
 Input=estrutura62_D2O.com
 Output=estrutura62_D2O.log
 Initial command:
 /home/scr/programs/g09/l1.exe "/home/scr/diego/Gau-9419.inp" -scrdir="/home/scr/diego/"
 Entering Link 1 = /home/scr/programs/g09/l1.exe PID=      9421.
  
 Copyright (c) 1988,1990,1992,1993,1995,1998,2003,2009,2013,
            Gaussian, Inc.  All Rights Reserved.
  
 This is part of the Gaussian(R) 09 program.  It is based on
 the Gaussian(R) 03 system (copyright 2003, Gaussian, Inc.),
 the Gaussian(R) 98 system (copyright 1998, Gaussian, Inc.),
 the Gaussian(R) 94 system (copyright 1995, Gaussian, Inc.),
 the Gaussian 92(TM) system (copyright 1992, Gaussian, Inc.),
 the Gaussian 90(TM) system (copyright 1990, Gaussian, Inc.),
 the Gaussian 88(TM) system (copyright 1988, Gaussian, Inc.),
 the Gaussian 86(TM) system (copyright 1986, Carnegie Mellon
 University), and the Gaussian 82(TM) system (copyright 1983,
 Carnegie Mellon University). Gaussian is a federally registered
 trademark of Gaussian, Inc.
  
 This software contains proprietary and confidential information,
 including trade secrets, belonging to Gaussian, Inc.
  
 This software is provided under written license and may be
 used, copied, transmitted, or stored only in accord with that
 written license.
  
 The following legend is applicable only to US Government
 contracts under FAR:
  
                    RESTRICTED RIGHTS LEGEND
  
 Use, reproduction and disclosure by the US Government is
 subject to restrictions as set forth in subparagraphs (a)
 and (c) of the Commercial Computer Software - Restricted
 Rights clause in FAR 52.227-19.
  
 Gaussian, Inc.
 340 Quinnipiac St., Bldg. 40, Wallingford CT 06492
  
  
 ---------------------------------------------------------------
 Warning -- This program may not be used in any manner that
 competes with the business of Gaussian, Inc. or will provide
 assistance to any competitor of Gaussian, Inc.  The licensee
 of this program is prohibited from giving any competitor of
 Gaussian, Inc. access to this program.  By using this program,
 the user acknowledges that Gaussian, Inc. is engaged in the
 business of creating and licensing software in the field of
 computational chemistry and represents and warrants to the
 licensee that it is not a competitor of Gaussian, Inc. and that
 it will not use this program in any manner prohibited above.
 ---------------------------------------------------------------
  

 Cite this work as:
 Gaussian 09, Revision D.01,
 M. J. Frisch, G. W. Trucks, H. B. Schlegel, G. E. Scuseria, 
 M. A. Robb, J. R. Cheeseman, G. Scalmani, V. Barone, B. Mennucci, 
 G. A. Petersson, H. Nakatsuji, M. Caricato, X. Li, H. P. Hratchian, 
 A. F. Izmaylov, J. Bloino, G. Zheng, J. L. Sonnenberg, M. Hada, 
 M. Ehara, K. Toyota, R. Fukuda, J. Hasegawa, M. Ishida, T. Nakajima, 
 Y. Honda, O. Kitao, H. Nakai, T. Vreven, J. A. Montgomery, Jr., 
 J. E. Peralta, F. Ogliaro, M. Bearpark, J. J. Heyd, E. Brothers, 
 K. N. Kudin, V. N. Staroverov, T. Keith, R. Kobayashi, J. Normand, 
 K. Raghavachari, A. Rendell, J. C. Burant, S. S. Iyengar, J. Tomasi, 
 M. Cossi, N. Rega, J. M. Millam, M. Klene, J. E. Knox, J. B. Cross, 
 V. Bakken, C. Adamo, J. Jaramillo, R. Gomperts, R. E. Stratmann, 
 O. Yazyev, A. J. Austin, R. Cammi, C. Pomelli, J. W. Ochterski, 
 R. L. Martin, K. Morokuma, V. G. Zakrzewski, G. A. Voth, 
 P. Salvador, J. J. Dannenberg, S. Dapprich, A. D. Daniels, 
 O. Farkas, J. B. Foresman, J. V. Ortiz, J. Cioslowski, 
 and D. J. Fox, Gaussian, Inc., Wallingford CT, 2013.
 
 ******************************************
 Gaussian 09:  EM64L-G09RevD.01 24-Apr-2013
                18-Aug-2021 
 ******************************************
 %mem=15gb
 %nproc=8
 Will use up to    8 processors via shared memory.
 ------------------------------------------------------------
 #b3lyp/gen pseudo=read opt freq=noraman scrf=(solvent=water)
 ------------------------------------------------------------
 1/14=-1,18=20,19=15,26=3,38=1/1,3;
 2/9=110,12=2,17=6,18=5,40=1/2;
 3/5=7,11=2,16=1,17=8,25=1,30=1,70=2201,71=1,72=1,74=-5/1,2,3;
 4//1;
 5/5=2,38=5,53=1/2;
 6/7=2,8=2,9=2,10=2,28=1/1;
 7//1,2,3,16;
 1/14=-1,18=20,19=15,26=3/3(2);
 2/9=110/2;
 99//99;
 2/9=110/2;
 3/5=7,6=1,11=2,16=1,17=8,25=1,30=1,70=2205,71=1,72=1,74=-5,82=7/1,2,3;
 4/5=5,16=3,69=1/1;
 5/5=2,38=5,53=1/2;
 7//1,2,3,16;
 1/14=-1,18=20,19=15,26=3/3(-5);
 2/9=110/2;
 6/7=2,8=2,9=2,10=2,19=2,28=1/1;
 99/9=1/99;
 ------------
 Estrutura 62
 ------------
 Symbolic Z-matrix:
 Charge = -2 Multiplicity = 1
 Pt                   -0.31955   0.33835   0. 
 N                    -0.31955  -1.65165   0. 
 O                     0.95213  -2.10499   0.1641 
 O                    -0.81328  -2.10499  -1.18335 
 N                     1.67045   0.33835   0. 
 O                     2.12378   1.35457  -0.7819 
 O                     2.12378   0.50738   1.27103 
 N                    -0.31955   2.32835   0. 
 N                    -2.30955   0.33835   0. 
 O                    -2.76288  -0.04279   1.22426 
 O                    -2.76288   1.58916  -0.28206 
 O                     0.38494   2.78168   1.07135 
 O                     0.25602   2.78168  -1.14578 
 Br                   -0.31955   0.33835   2.43 
 Br                   -0.31955   0.33835  -2.43 
 

 GradGradGradGradGradGradGradGradGradGradGradGradGradGradGradGradGradGrad
 Berny optimization.
 Initialization pass.
                           ----------------------------
                           !    Initial Parameters    !
                           ! (Angstroms and Degrees)  !
 --------------------------                            --------------------------
 ! Name  Definition              Value          Derivative Info.                !
 --------------------------------------------------------------------------------
 ! R1    R(1,2)                  1.99           estimate D2E/DX2                !
 ! R2    R(1,5)                  1.99           estimate D2E/DX2                !
 ! R3    R(1,8)                  1.99           estimate D2E/DX2                !
 ! R4    R(1,9)                  1.99           estimate D2E/DX2                !
 ! R5    R(1,14)                 2.43           estimate D2E/DX2                !
 ! R6    R(1,15)                 2.43           estimate D2E/DX2                !
 ! R7    R(2,3)                  1.36           estimate D2E/DX2                !
 ! R8    R(2,4)                  1.36           estimate D2E/DX2                !
 ! R9    R(5,6)                  1.36           estimate D2E/DX2                !
 ! R10   R(5,7)                  1.36           estimate D2E/DX2                !
 ! R11   R(8,12)                 1.36           estimate D2E/DX2                !
 ! R12   R(8,13)                 1.36           estimate D2E/DX2                !
 ! R13   R(9,10)                 1.36           estimate D2E/DX2                !
 ! R14   R(9,11)                 1.36           estimate D2E/DX2                !
 ! A1    A(2,1,5)               90.0            estimate D2E/DX2                !
 ! A2    A(2,1,9)               90.0            estimate D2E/DX2                !
 ! A3    A(2,1,14)              90.0            estimate D2E/DX2                !
 ! A4    A(2,1,15)              90.0            estimate D2E/DX2                !
 ! A5    A(5,1,8)               90.0            estimate D2E/DX2                !
 ! A6    A(5,1,14)              90.0            estimate D2E/DX2                !
 ! A7    A(5,1,15)              90.0            estimate D2E/DX2                !
 ! A8    A(8,1,9)               90.0            estimate D2E/DX2                !
 ! A9    A(8,1,14)              90.0            estimate D2E/DX2                !
 ! A10   A(8,1,15)              90.0            estimate D2E/DX2                !
 ! A11   A(9,1,14)              90.0            estimate D2E/DX2                !
 ! A12   A(9,1,15)              90.0            estimate D2E/DX2                !
 ! A13   A(1,2,3)              109.4712         estimate D2E/DX2                !
 ! A14   A(1,2,4)              109.4712         estimate D2E/DX2                !
 ! A15   A(3,2,4)              109.4713         estimate D2E/DX2                !
 ! A16   A(1,5,6)              109.4712         estimate D2E/DX2                !
 ! A17   A(1,5,7)              109.4712         estimate D2E/DX2                !
 ! A18   A(6,5,7)              109.4713         estimate D2E/DX2                !
 ! A19   A(1,8,12)             109.4712         estimate D2E/DX2                !
 ! A20   A(1,8,13)             109.4712         estimate D2E/DX2                !
 ! A21   A(12,8,13)            109.4713         estimate D2E/DX2                !
 ! A22   A(1,9,10)             109.4712         estimate D2E/DX2                !
 ! A23   A(1,9,11)             109.4712         estimate D2E/DX2                !
 ! A24   A(10,9,11)            109.4713         estimate D2E/DX2                !
 ! A25   L(2,1,8,5,-1)         180.0            estimate D2E/DX2                !
 ! A26   L(5,1,9,2,-1)         180.0            estimate D2E/DX2                !
 ! A27   L(14,1,15,2,-1)       180.0            estimate D2E/DX2                !
 ! A28   L(2,1,8,5,-2)         180.0            estimate D2E/DX2                !
 ! A29   L(5,1,9,2,-2)         180.0            estimate D2E/DX2                !
 ! A30   L(14,1,15,2,-2)       180.0            estimate D2E/DX2                !
 ! D1    D(5,1,2,3)              7.3528         estimate D2E/DX2                !
 ! D2    D(5,1,2,4)           -112.6472         estimate D2E/DX2                !
 ! D3    D(9,1,2,3)           -172.6472         estimate D2E/DX2                !
 ! D4    D(9,1,2,4)             67.3528         estimate D2E/DX2                !
 ! D5    D(14,1,2,3)           -82.6472         estimate D2E/DX2                !
 ! D6    D(14,1,2,4)           157.3528         estimate D2E/DX2                !
 ! D7    D(15,1,2,3)            97.3528         estimate D2E/DX2                !
 ! D8    D(15,1,2,4)           -22.6472         estimate D2E/DX2                !
 ! D9    D(3,2,8,12)           -49.3195         estimate D2E/DX2                !
 ! D10   D(3,2,8,13)            70.6805         estimate D2E/DX2                !
 ! D11   D(4,2,8,12)          -169.3195         estimate D2E/DX2                !
 ! D12   D(4,2,8,13)           -49.3195         estimate D2E/DX2                !
 ! D13   D(2,1,5,6)            142.4248         estimate D2E/DX2                !
 ! D14   D(2,1,5,7)            -97.5752         estimate D2E/DX2                !
 ! D15   D(8,1,5,6)            -37.5752         estimate D2E/DX2                !
 ! D16   D(8,1,5,7)             82.4248         estimate D2E/DX2                !
 ! D17   D(14,1,5,6)          -127.5752         estimate D2E/DX2                !
 ! D18   D(14,1,5,7)            -7.5752         estimate D2E/DX2                !
 ! D19   D(15,1,5,6)            52.4248         estimate D2E/DX2                !
 ! D20   D(15,1,5,7)           172.4248         estimate D2E/DX2                !
 ! D21   D(6,5,9,10)          -144.8676         estimate D2E/DX2                !
 ! D22   D(6,5,9,11)           -24.8676         estimate D2E/DX2                !
 ! D23   D(7,5,9,10)           -24.8676         estimate D2E/DX2                !
 ! D24   D(7,5,9,11)            95.1324         estimate D2E/DX2                !
 ! D25   D(5,1,8,12)           -56.6723         estimate D2E/DX2                !
 ! D26   D(5,1,8,13)            63.3277         estimate D2E/DX2                !
 ! D27   D(9,1,8,12)           123.3277         estimate D2E/DX2                !
 ! D28   D(9,1,8,13)          -116.6723         estimate D2E/DX2                !
 ! D29   D(14,1,8,12)           33.3277         estimate D2E/DX2                !
 ! D30   D(14,1,8,13)          153.3277         estimate D2E/DX2                !
 ! D31   D(15,1,8,12)         -146.6723         estimate D2E/DX2                !
 ! D32   D(15,1,8,13)          -26.6723         estimate D2E/DX2                !
 ! D33   D(2,1,9,10)            72.7076         estimate D2E/DX2                !
 ! D34   D(2,1,9,11)          -167.2924         estimate D2E/DX2                !
 ! D35   D(8,1,9,10)          -107.2924         estimate D2E/DX2                !
 ! D36   D(8,1,9,11)            12.7076         estimate D2E/DX2                !
 ! D37   D(14,1,9,10)          -17.2924         estimate D2E/DX2                !
 ! D38   D(14,1,9,11)          102.7076         estimate D2E/DX2                !
 ! D39   D(15,1,9,10)          162.7076         estimate D2E/DX2                !
 ! D40   D(15,1,9,11)          -77.2924         estimate D2E/DX2                !
 --------------------------------------------------------------------------------
 Trust Radius=3.00D-01 FncErr=1.00D-07 GrdErr=1.00D-06
 Number of steps in this run=     94 maximum allowed number of steps=    100.
 GradGradGradGradGradGradGradGradGradGradGradGradGradGradGradGradGradGrad

                          Input orientation:                          
 ---------------------------------------------------------------------
 Center     Atomic      Atomic             Coordinates (Angstroms)
 Number     Number       Type             X           Y           Z
 ---------------------------------------------------------------------
      1         78           0       -0.319549    0.338346    0.000000
      2          7           0       -0.319549   -1.651654    0.000000
      3          8           0        0.952128   -2.104987    0.164097
      4          8           0       -0.813275   -2.104987   -1.183353
      5          7           0        1.670451    0.338346    0.000000
      6          8           0        2.123784    1.354574   -0.781901
      7          8           0        2.123784    0.507377    1.271030
      8          7           0       -0.319549    2.328346    0.000000
      9          7           0       -2.309549    0.338346    0.000000
     10          8           0       -2.762882   -0.042792    1.224264
     11          8           0       -2.762882    1.589159   -0.282057
     12          8           0        0.384937    2.781679    1.071349
     13          8           0        0.256023    2.781679   -1.145778
     14         35           0       -0.319549    0.338346    2.430000
     15         35           0       -0.319549    0.338346   -2.430000
 ---------------------------------------------------------------------
                    Distance matrix (angstroms):
                    1          2          3          4          5
     1  Pt   0.000000
     2  N    1.990000   0.000000
     3  O    2.759341   1.360000   0.000000
     4  O    2.759341   1.360000   2.220871   0.000000
     5  N    1.990000   2.814285   2.552017   3.679551   0.000000
     6  O    2.759341   3.952044   3.773096   4.555880   1.360000
     7  O    2.759341   3.499544   3.069614   4.634087   1.360000
     8  N    1.990000   3.980000   4.615033   4.615033   2.814285
     9  N    1.990000   2.814285   4.078644   3.099844   3.980000
    10  O    2.759341   3.171299   4.379258   3.721590   4.615033
    11  O    2.759341   4.068452   5.258047   4.273174   4.615033
    12  O    2.759341   4.615033   5.002431   5.513519   2.961454
    13  O    2.759341   4.615033   5.106842   5.002431   3.046849
    14  Br   2.430000   3.140860   3.566701   4.389756   3.140860
    15  Br   2.430000   3.140860   3.783699   2.787072   3.140860
                    6          7          8          9         10
     6  O    0.000000
     7  O    2.220871   0.000000
     8  N    2.743989   3.301715   0.000000
     9  N    4.615033   4.615033   2.814285   0.000000
    10  O    5.464141   4.917761   3.618148   1.360000   0.000000
    11  O    4.917761   5.240404   2.568235   1.360000   2.220871
    12  O    2.914576   2.869827   1.360000   3.791823   4.231995
    13  O    2.378564   3.808141   1.360000   3.723552   4.765346
    14  Br   4.161599   2.709550   3.140860   3.140860   2.751171
    15  Br   3.117503   4.438026   3.140860   3.140860   4.412345
                   11         12         13         14         15
    11  O    0.000000
    12  O    3.628027   0.000000
    13  O    3.358854   2.220871   0.000000
    14  Br   3.858713   2.883073   4.368906   0.000000
    15  Br   3.485408   4.327311   2.819643   4.860000   0.000000
 Stoichiometry    Br2N4O8Pt(2-)
 Framework group  C1[X(Br2N4O8Pt)]
 Deg. of freedom    39
 Full point group                 C1      NOp   1
 Largest Abelian subgroup         C1      NOp   1
 Largest concise Abelian subgroup C1      NOp   1
                         Standard orientation:                         
 ---------------------------------------------------------------------
 Center     Atomic      Atomic             Coordinates (Angstroms)
 Number     Number       Type             X           Y           Z
 ---------------------------------------------------------------------
      1         78           0        0.013080   -0.096707   -0.001132
      2          7           0        0.080024   -1.513519    1.394669
      3          8           0       -0.059963   -0.946758    2.622995
      4          8           0        1.274527   -2.160218    1.327264
      5          7           0        0.026792    1.300180    1.416125
      6          8           0        0.777169    2.356873    1.003894
      7          8           0       -1.246051    1.714435    1.656673
      8          7           0       -0.053864    1.320105   -1.396934
      9          7           0       -0.000632   -1.493594   -1.418390
     10          8           0       -1.214476   -2.106585   -1.439000
     11          8           0        0.236058   -0.915882   -2.626623
     12          8           0       -1.134977    2.116890   -1.182623
     13          8           0        1.079953    2.068801   -1.337666
     14         35           0       -2.415487   -0.143181    0.068170
     15         35           0        2.441647   -0.050233   -0.070435
 ---------------------------------------------------------------------
 Rotational constants (GHZ):      0.4729338      0.3240280      0.3120102
 General basis read from cards:  (5D, 7F)
 ======================================================================================================
                                       Pseudopotential Parameters
 ======================================================================================================
  Center     Atomic      Valence      Angular      Power
  Number     Number     Electrons     Momentum     of R      Exponent        Coefficient   SO-Coeffient
 ======================================================================================================
    1         78           18
                                      G and up 
                                                     1      728.9394056       -0.16192680    0.00000000
                                                     2      320.6567800    -1320.28738520    0.00000000
                                                     2       52.8680174     -298.31781350    0.00000000
                                                     2       12.0280128      -87.58370650    0.00000000
                                                     2        3.5238913       -8.14932740    0.00000000
                                      S - G
                                                     0      409.4437358        2.73342180    0.00000000
                                                     1      274.5419231       59.70243290    0.00000000
                                                     2      127.5658570      891.45895500    0.00000000
                                                     2       32.9036631      368.44676560    0.00000000
                                                     2        5.0593880      238.02630900    0.00000000
                                                     2        4.1506556     -107.05564540    0.00000000
                                      P - G
                                                     0      466.1728892        1.88785680    0.00000000
                                                     1      120.7888259       76.01386290    0.00000000
                                                     2       36.4118791      343.55111160    0.00000000
                                                     2        5.6985408      119.49117860    0.00000000
                                      D - G
                                                     0      249.5650763        2.93436780    0.00000000
                                                     1      126.6678585       59.33065710    0.00000000
                                                     2       63.1430586      452.44451940    0.00000000
                                                     2       17.9059470      210.47694790    0.00000000
                                                     2        4.2239373       58.62541120    0.00000000
                                      F - G
                                                     0      121.8158799        3.95342530    0.00000000
                                                     1       60.8757030       53.85551820    0.00000000
                                                     2       31.4767147      247.43051330    0.00000000
                                                     2        9.8811751      127.81879760    0.00000000
                                                     2        2.7319874       15.37720460    0.00000000
    2          7
                                   No pseudopotential on this center.
    3          8
                                   No pseudopotential on this center.
    4          8
                                   No pseudopotential on this center.
    5          7
                                   No pseudopotential on this center.
    6          8
                                   No pseudopotential on this center.
    7          8
                                   No pseudopotential on this center.
    8          7
                                   No pseudopotential on this center.
    9          7
                                   No pseudopotential on this center.
   10          8
                                   No pseudopotential on this center.
   11          8
                                   No pseudopotential on this center.
   12          8
                                   No pseudopotential on this center.
   13          8
                                   No pseudopotential on this center.
   14         35
                                   No pseudopotential on this center.
   15         35
                                   No pseudopotential on this center.
 ======================================================================================================
 There are   274 symmetry adapted cartesian basis functions of A   symmetry.
 There are   254 symmetry adapted basis functions of A   symmetry.
   254 basis functions,   503 primitive gaussians,   274 cartesian basis functions
    91 alpha electrons       91 beta electrons
       nuclear repulsion energy      2452.6583595763 Hartrees.
 NAtoms=   15 NActive=   15 NUniq=   15 SFac= 1.00D+00 NAtFMM=   60 NAOKFM=F Big=F
 Integral buffers will be    131072 words long.
 Raffenetti 2 integral format.
 Two-electron integral symmetry is turned on.
 ------------------------------------------------------------------------------
 Polarizable Continuum Model (PCM)
 =================================
 Model                : PCM (using non-symmetric T matrix).
 Atomic radii         : UFF (Universal Force Field).
 Polarization charges : Total charges.
 Charge compensation  : None.
 Solution method      : On-the-fly selection.
 Cavity type          : Scaled VdW (van der Waals Surface) (Alpha=1.100).
 Cavity algorithm     : GePol (No added spheres)
                        Default sphere list used, NSphG=   15.
                        Lebedev-Laikov grids with approx.  5.0 points / Ang**2.
                        Smoothing algorithm: Karplus/York (Gamma=1.0000).
                        Polarization charges: spherical gaussians, with
                                              point-specific exponents (IZeta= 3).
                        Self-potential: point-specific (ISelfS= 7).
                        Self-field    : sphere-specific E.n sum rule (ISelfD= 2).
 1st derivatives      : Analytical E(r).r(x)/FMM algorithm (CHGder, D1EAlg=3).
                        Cavity 1st derivative terms included.
 Solvent              : Water, Eps=  78.355300 Eps(inf)=   1.777849
 ------------------------------------------------------------------------------
 Spheres list:
 ISph  on   Nord     Re0    Alpha      Xe            Ye            Ze
    1  Pt      1    1.3770  1.100      0.013080     -0.096707     -0.001132
    2   N      2    1.8300  1.100      0.080024     -1.513519      1.394669
    3   O      3    1.7500  1.100     -0.059963     -0.946758      2.622995
    4   O      4    1.7500  1.100      1.274527     -2.160218      1.327264
    5   N      5    1.8300  1.100      0.026792      1.300180      1.416125
    6   O      6    1.7500  1.100      0.777169      2.356873      1.003894
    7   O      7    1.7500  1.100     -1.246051      1.714435      1.656673
    8   N      8    1.8300  1.100     -0.053864      1.320105     -1.396934
    9   N      9    1.8300  1.100     -0.000632     -1.493594     -1.418390
   10   O     10    1.7500  1.100     -1.214476     -2.106585     -1.439000
   11   O     11    1.7500  1.100      0.236058     -0.915882     -2.626623
   12   O     12    1.7500  1.100     -1.134977      2.116890     -1.182623
   13   O     13    1.7500  1.100      1.079953      2.068801     -1.337666
   14  Br     14    2.0945  1.100     -2.415487     -0.143181      0.068170
   15  Br     15    2.0945  1.100      2.441647     -0.050233     -0.070435
 ------------------------------------------------------------------------------
 One-electron integrals computed using PRISM.
   1 Symmetry operations used in ECPInt.
 ECPInt:  NShTT=    5460 NPrTT=   24557 LenC2=    5106 LenP2D=   16004.
 LDataN:  DoStor=T MaxTD1= 6 Len=  172
 NBasis=   254 RedAO= T EigKep=  2.44D-03  NBF=   254
 NBsUse=   254 1.00D-06 EigRej= -1.00D+00 NBFU=   254
 Defaulting to unpruned grid for atomic number  78.
 ExpMin= 2.90D-02 ExpMax= 1.13D+05 ExpMxC= 1.70D+04 IAcc=3 IRadAn=         5 AccDes= 0.00D+00
 Harris functional with IExCor=  402 and IRadAn=       5 diagonalized for initial guess.
 HarFok:  IExCor=  402 AccDes= 0.00D+00 IRadAn=         5 IDoV= 1 UseB2=F ITyADJ=14
 ICtDFT=  3500011 ScaDFX=  1.000000  1.000000  1.000000  1.000000
 Defaulting to unpruned grid for atomic number  78.
 Defaulting to unpruned grid for atomic number  78.
 Defaulting to unpruned grid for atomic number  78.
 Defaulting to unpruned grid for atomic number  78.
 Defaulting to unpruned grid for atomic number  78.
 Defaulting to unpruned grid for atomic number  78.
 Defaulting to unpruned grid for atomic number  78.
 Defaulting to unpruned grid for atomic number  78.
 FoFCou: FMM=F IPFlag=           0 FMFlag=      100000 FMFlg1=           0
         NFxFlg=           0 DoJE=T BraDBF=F KetDBF=T FulRan=T
         wScrn=  0.000000 ICntrl=     500 IOpCl=  0 I1Cent=   200000004 NGrid=           0
         NMat0=    1 NMatS0=      1 NMatT0=    0 NMatD0=    1 NMtDS0=    0 NMtDT0=    0
 Petite list used in FoFCou.
 Keep R1 ints in memory in canonical form, NReq=535056607.
 Requested convergence on RMS density matrix=1.00D-08 within 128 cycles.
 Requested convergence on MAX density matrix=1.00D-06.
 Requested convergence on             energy=1.00D-06.
 No special actions if energy rises.
 Defaulting to unpruned grid for atomic number  78.
 Defaulting to unpruned grid for atomic number  78.
 Defaulting to unpruned grid for atomic number  78.
 Defaulting to unpruned grid for atomic number  78.
 Defaulting to unpruned grid for atomic number  78.
 Defaulting to unpruned grid for atomic number  78.
 Defaulting to unpruned grid for atomic number  78.
 Defaulting to unpruned grid for atomic number  78.
 Inv3:  Mode=1 IEnd=     9494523.
 Iteration    1 A*A^-1 deviation from unit magnitude is 7.33D-15 for    665.
 Iteration    1 A*A^-1 deviation from orthogonality  is 3.86D-15 for   1219    769.
 Iteration    1 A^-1*A deviation from unit magnitude is 6.77D-15 for    867.
 Iteration    1 A^-1*A deviation from orthogonality  is 5.10D-14 for   1220   1215.
 EnCoef did   100 forward-backward iterations
 EnCoef did   100 forward-backward iterations
 EnCoef did   100 forward-backward iterations
 EnCoef did   100 forward-backward iterations
 EnCoef did   100 forward-backward iterations
 EnCoef did     2 forward-backward iterations
 Error on total polarization charges =  0.01055
 SCF Done:  E(RB3LYP) =  -6086.76541651     A.U. after   29 cycles
            NFock= 29  Conv=0.68D-08     -V/T= 2.0156

 **********************************************************************

            Population analysis using the SCF density.

 **********************************************************************

 Orbital symmetries:
       Occupied  (A) (A) (A) (A) (A) (A) (A) (A) (A) (A) (A) (A)
                 (A) (A) (A) (A) (A) (A) (A) (A) (A) (A) (A) (A)
                 (A) (A) (A) (A) (A) (A) (A) (A) (A) (A) (A) (A)
                 (A) (A) (A) (A) (A) (A) (A) (A) (A) (A) (A) (A)
                 (A) (A) (A) (A) (A) (A) (A) (A) (A) (A) (A) (A)
                 (A) (A) (A) (A) (A) (A) (A) (A) (A) (A) (A) (A)
                 (A) (A) (A) (A) (A) (A) (A) (A) (A) (A) (A) (A)
                 (A) (A) (A) (A) (A) (A) (A)
       Virtual   (A) (A) (A) (A) (A) (A) (A) (A) (A) (A) (A) (A)
                 (A) (A) (A) (A) (A) (A) (A) (A) (A) (A) (A) (A)
                 (A) (A) (A) (A) (A) (A) (A) (A) (A) (A) (A) (A)
                 (A) (A) (A) (A) (A) (A) (A) (A) (A) (A) (A) (A)
                 (A) (A) (A) (A) (A) (A) (A) (A) (A) (A) (A) (A)
                 (A) (A) (A) (A) (A) (A) (A) (A) (A) (A) (A) (A)
                 (A) (A) (A) (A) (A) (A) (A) (A) (A) (A) (A) (A)
                 (A) (A) (A) (A) (A) (A) (A) (A) (A) (A) (A) (A)
                 (A) (A) (A) (A) (A) (A) (A) (A) (A) (A) (A) (A)
                 (A) (A) (A) (A) (A) (A) (A) (A) (A) (A) (A) (A)
                 (A) (A) (A) (A) (A) (A) (A) (A) (A) (A) (A) (A)
                 (A) (A) (A) (A) (A) (A) (A) (A) (A) (A) (A) (A)
                 (A) (A) (A) (A) (A) (A) (A) (A) (A) (A) (A) (A)
                 (A) (A) (A) (A) (A) (A) (A)
 The electronic state is 1-A.
 Alpha  occ. eigenvalues -- -482.75393-482.75080 -62.43554 -62.43238 -56.26747
 Alpha  occ. eigenvalues --  -56.26458 -56.26443 -56.26437 -56.26136 -56.26116
 Alpha  occ. eigenvalues --  -19.15624 -19.15592 -19.15388 -19.15067 -19.14953
 Alpha  occ. eigenvalues --  -19.14728 -19.14703 -19.14567 -14.49968 -14.49959
 Alpha  occ. eigenvalues --  -14.49866 -14.49775  -8.65334  -8.65021  -6.48545
 Alpha  occ. eigenvalues --   -6.48268  -6.47487  -6.47418  -6.47155  -6.47087
 Alpha  occ. eigenvalues --   -4.05024  -2.59997  -2.59716  -2.59713  -2.59661
 Alpha  occ. eigenvalues --   -2.59416  -2.59363  -2.58828  -2.58827  -2.58487
 Alpha  occ. eigenvalues --   -2.58484  -2.26726  -2.26698  -2.25804  -1.10648
 Alpha  occ. eigenvalues --   -1.09677  -1.09588  -1.09111  -0.94227  -0.93876
 Alpha  occ. eigenvalues --   -0.93684  -0.93170  -0.74219  -0.72630  -0.68340
 Alpha  occ. eigenvalues --   -0.67727  -0.64508  -0.63439  -0.52240  -0.51548
 Alpha  occ. eigenvalues --   -0.50177  -0.48296  -0.47981  -0.47838  -0.47534
 Alpha  occ. eigenvalues --   -0.46665  -0.45846  -0.45035  -0.44670  -0.42849
 Alpha  occ. eigenvalues --   -0.42648  -0.38536  -0.38115  -0.35671  -0.32008
 Alpha  occ. eigenvalues --   -0.31002  -0.29454  -0.29243  -0.28627  -0.28259
 Alpha  occ. eigenvalues --   -0.27492  -0.27199  -0.26762  -0.26372  -0.26061
 Alpha  occ. eigenvalues --   -0.25799  -0.25388  -0.24984  -0.23937  -0.22565
 Alpha  occ. eigenvalues --   -0.21738
 Alpha virt. eigenvalues --   -0.15372  -0.14905  -0.09996  -0.09637  -0.08377
 Alpha virt. eigenvalues --    0.00900   0.05241   0.06533   0.06604   0.17031
 Alpha virt. eigenvalues --    0.17424   0.17525   0.17964   0.19274   0.19731
 Alpha virt. eigenvalues --    0.19858   0.20419   0.21361   0.28597   0.28870
 Alpha virt. eigenvalues --    0.31260   0.35719   0.38054   0.39651   0.45024
 Alpha virt. eigenvalues --    0.47306   0.47409   0.50078   0.52786   0.54955
 Alpha virt. eigenvalues --    0.58526   0.60036   0.60361   0.60811   0.61238
 Alpha virt. eigenvalues --    0.62465   0.62944   0.66540   0.68573   0.69917
 Alpha virt. eigenvalues --    0.71967   0.75507   0.78771   0.82289   0.83064
 Alpha virt. eigenvalues --    0.83815   0.84111   0.85951   0.86477   0.87245
 Alpha virt. eigenvalues --    0.89448   0.89964   0.90622   0.92192   0.93667
 Alpha virt. eigenvalues --    0.94955   0.95158   0.96457   0.97369   0.97716
 Alpha virt. eigenvalues --    0.99506   1.01054   1.01197   1.03771   1.05304
 Alpha virt. eigenvalues --    1.06016   1.09327   1.09650   1.10514   1.11716
 Alpha virt. eigenvalues --    1.12777   1.14739   1.15926   1.16102   1.18338
 Alpha virt. eigenvalues --    1.19120   1.20077   1.22394   1.24193   1.25167
 Alpha virt. eigenvalues --    1.27944   1.28973   1.30866   1.31326   1.36036
 Alpha virt. eigenvalues --    1.37235   1.42632   1.44397   1.48630   1.51506
 Alpha virt. eigenvalues --    1.55124   1.57945   1.86901   1.88513   1.92727
 Alpha virt. eigenvalues --    1.92868   1.95869   1.99076   2.01034   2.03106
 Alpha virt. eigenvalues --    2.05340   2.07195   2.14001   2.23806   2.29215
 Alpha virt. eigenvalues --    2.29659   2.31266   2.32991   2.33721   2.34521
 Alpha virt. eigenvalues --    2.35323   2.35766   2.63921   2.64243   2.64962
 Alpha virt. eigenvalues --    2.65462   2.65784   2.66011   2.66440   2.66795
 Alpha virt. eigenvalues --    2.66950   2.67256   2.67959   2.68015   2.69065
 Alpha virt. eigenvalues --    2.70086   2.70327   2.74014   2.74727   2.76154
 Alpha virt. eigenvalues --    2.76523   2.78260   2.95663   2.97818   2.98079
 Alpha virt. eigenvalues --    3.00440   3.01215   3.01315   3.01612   3.01783
 Alpha virt. eigenvalues --    3.21536   3.22144   3.22839   3.24172   3.44629
 Alpha virt. eigenvalues --    3.46236   3.47891   3.48945   3.49883   3.50730
 Alpha virt. eigenvalues --    3.51585   3.58554   3.62925   3.63516   3.64358
 Alpha virt. eigenvalues --    3.66387   3.68405   3.71707   3.72078   3.74127
 Alpha virt. eigenvalues --    3.74794   3.84221   9.30659
          Condensed to atoms (all electrons):
               1          2          3          4          5          6
     1  Pt  17.427390   0.048421   0.004403  -0.008682   0.050731  -0.017057
     2  N    0.048421   6.630887   0.178863   0.176880  -0.001507   0.000135
     3  O    0.004403   0.178863   8.210853  -0.091456  -0.017221   0.000177
     4  O   -0.008682   0.176880  -0.091456   8.193901  -0.000154   0.000005
     5  N    0.050731  -0.001507  -0.017221  -0.000154   6.625767   0.185433
     6  O   -0.017057   0.000135   0.000177   0.000005   0.185433   8.188692
     7  O   -0.011808  -0.000551  -0.000291   0.000000   0.174867  -0.093005
     8  N    0.046326  -0.005471   0.000116   0.000114  -0.011572  -0.013732
     9  N    0.046939  -0.003022   0.000088  -0.002454  -0.005599   0.000122
    10  O   -0.006241  -0.001602   0.000022  -0.000110   0.000110   0.000000
    11  O    0.001736   0.000075   0.000001   0.000035   0.000124  -0.000003
    12  O   -0.007674   0.000112  -0.000001   0.000000  -0.004710   0.002369
    13  O   -0.022324   0.000098   0.000000   0.000000  -0.003866  -0.002494
    14  Br   0.236011  -0.014448  -0.000784   0.000447  -0.024684   0.000654
    15  Br   0.227936  -0.028780   0.001134  -0.011658  -0.015153  -0.004001
               7          8          9         10         11         12
     1  Pt  -0.011808   0.046326   0.046939  -0.006241   0.001736  -0.007674
     2  N   -0.000551  -0.005471  -0.003022  -0.001602   0.000075   0.000112
     3  O   -0.000291   0.000116   0.000088   0.000022   0.000001  -0.000001
     4  O    0.000000   0.000114  -0.002454  -0.000110   0.000035   0.000000
     5  N    0.174867  -0.011572  -0.005599   0.000110   0.000124  -0.004710
     6  O   -0.093005  -0.013732   0.000122   0.000000  -0.000003   0.002369
     7  O    8.208703  -0.000576   0.000103   0.000000   0.000000  -0.001163
     8  N   -0.000576   6.623147  -0.000207  -0.000220  -0.017085   0.178954
     9  N    0.000103  -0.000207   6.635603   0.172330   0.179222  -0.000061
    10  O    0.000000  -0.000220   0.172330   8.198675  -0.091471   0.000012
    11  O    0.000000  -0.017085   0.179222  -0.091471   8.209851   0.000024
    12  O   -0.001163   0.178954  -0.000061   0.000012   0.000024   8.207493
    13  O    0.000150   0.189763  -0.000049  -0.000002  -0.000341  -0.096442
    14  Br  -0.030480  -0.014711  -0.030013  -0.019544   0.001304  -0.018453
    15  Br   0.000428  -0.025358  -0.014310   0.000438  -0.000161   0.000480
              13         14         15
     1  Pt  -0.022324   0.236011   0.227936
     2  N    0.000098  -0.014448  -0.028780
     3  O    0.000000  -0.000784   0.001134
     4  O    0.000000   0.000447  -0.011658
     5  N   -0.003866  -0.024684  -0.015153
     6  O   -0.002494   0.000654  -0.004001
     7  O    0.000150  -0.030480   0.000428
     8  N    0.189763  -0.014711  -0.025358
     9  N   -0.000049  -0.030013  -0.014310
    10  O   -0.000002  -0.019544   0.000438
    11  O   -0.000341   0.001304  -0.000161
    12  O   -0.096442  -0.018453   0.000480
    13  O    8.184067   0.000436  -0.022377
    14  Br   0.000436  34.945988  -0.003960
    15  Br  -0.022377  -0.003960  34.930930
 Mulliken charges:
               1
     1  Pt  -0.016108
     2  N    0.019910
     3  O   -0.285902
     4  O   -0.256867
     5  N    0.047436
     6  O   -0.247294
     7  O   -0.246376
     8  N    0.050513
     9  N    0.021308
    10  O   -0.252397
    11  O   -0.283311
    12  O   -0.260941
    13  O   -0.226619
    14  Br  -0.027765
    15  Br  -0.035588
 Sum of Mulliken charges =  -2.00000
 Mulliken charges with hydrogens summed into heavy atoms:
               1
     1  Pt  -0.016108
     2  N    0.019910
     3  O   -0.285902
     4  O   -0.256867
     5  N    0.047436
     6  O   -0.247294
     7  O   -0.246376
     8  N    0.050513
     9  N    0.021308
    10  O   -0.252397
    11  O   -0.283311
    12  O   -0.260941
    13  O   -0.226619
    14  Br  -0.027765
    15  Br  -0.035588
 Electronic spatial extent (au):  <R**2>=           3958.2187
 Charge=             -2.0000 electrons
 Dipole moment (field-independent basis, Debye):
    X=              0.4090    Y=             -1.8890    Z=             -0.1806  Tot=              1.9412
 Quadrupole moment (field-independent basis, Debye-Ang):
   XX=           -154.5000   YY=           -164.1775   ZZ=           -160.4515
   XY=              1.1268   XZ=             -0.8695   YZ=             -0.0201
 Traceless Quadrupole moment (field-independent basis, Debye-Ang):
   XX=              5.2097   YY=             -4.4679   ZZ=             -0.7418
   XY=              1.1268   XZ=             -0.8695   YZ=             -0.0201
 Octapole moment (field-independent basis, Debye-Ang**2):
  XXX=              2.1173  YYY=            -36.6463  ZZZ=             -2.3381  XYY=              0.0135
  XXY=             -3.1174  XXZ=             -0.1867  XZZ=              3.1479  YZZ=             11.2709
  YYZ=              0.5306  XYZ=             13.4064
 Hexadecapole moment (field-independent basis, Debye-Ang**3):
 XXXX=          -1755.1736 YYYY=          -1517.9413 ZZZZ=          -1396.6548 XXXY=              9.7521
 XXXZ=            -11.3139 YYYX=              4.6657 YYYZ=              1.7690 ZZZX=              2.9950
 ZZZY=             -4.3690 XXYY=           -568.8656 XXZZ=           -523.4566 YYZZ=           -496.6164
 XXYZ=              1.7220 YYXZ=            -26.1804 ZZXY=              9.0640
 N-N= 2.452658359576D+03 E-N=-1.944132556843D+04  KE= 5.993480816338D+03
   1 Symmetry operations used in ECPInt.
 ECPInt:  NShTT=    5460 NPrTT=   24557 LenC2=    5106 LenP2D=   16004.
 LDataN:  DoStor=T MaxTD1= 7 Len=  274
 D1PCM: PCM CHGder 1st derivatives, ID1Alg=3 FixD1E=F DoIter=F DoCFld=F I1PDM=0.
 Calling FoFJK, ICntrl=      2127 FMM=F ISym2X=0 I1Cent= 0 IOpClX= 0 NMat=1 NMatS=1 NMatT=0.
 Defaulting to unpruned grid for atomic number  78.
 Defaulting to unpruned grid for atomic number  78.
 Defaulting to unpruned grid for atomic number  78.
 Defaulting to unpruned grid for atomic number  78.
 Defaulting to unpruned grid for atomic number  78.
 Defaulting to unpruned grid for atomic number  78.
 Defaulting to unpruned grid for atomic number  78.
 Defaulting to unpruned grid for atomic number  78.
 ***** Axes restored to original set *****
 -------------------------------------------------------------------
 Center     Atomic                   Forces (Hartrees/Bohr)
 Number     Number              X              Y              Z
 -------------------------------------------------------------------
      1       78          -0.047885571   -0.047504483   -0.006737179
      2        7           0.104921867   -0.100570239   -0.132081647
      3        8          -0.089615758    0.021229149    0.020262845
      4        8          -0.000313553    0.023578807    0.099004155
      5        7           0.106379648    0.169466162    0.076642773
      6        8          -0.014980449   -0.095663610    0.028681112
      7        8          -0.011298091   -0.050610050   -0.097046614
      8        7           0.182766102    0.109629292   -0.020373407
      9        7          -0.100871334    0.114834677    0.127697344
     10        8           0.020423372   -0.008818680   -0.103052175
     11        8           0.021014600   -0.090506775   -0.013651415
     12        8          -0.079052990   -0.016923986   -0.062479012
     13        8          -0.078860808   -0.012639059    0.077181415
     14       35          -0.009151659   -0.006899778    0.048439707
     15       35          -0.003475377   -0.008601426   -0.042487900
 -------------------------------------------------------------------
 Cartesian Forces:  Max     0.182766102 RMS     0.076479909

 GradGradGradGradGradGradGradGradGradGradGradGradGradGradGradGradGradGrad
 Berny optimization.
 FormGI is forming the generalized inverse of G from B-inverse, IUseBI=4.
 Internal  Forces:  Max     0.102597551 RMS     0.037624937
 Search for a local minimum.
 Step number   1 out of a maximum of   94
 All quantities printed in internal units (Hartrees-Bohrs-Radians)
 Mixed Optimization -- RFO/linear search
 Second derivative matrix not updated -- first step.
 ITU=  0
     Eigenvalues ---    0.00230   0.00230   0.00230   0.00230   0.03392
     Eigenvalues ---    0.03398   0.03419   0.03424   0.06381   0.06382
     Eigenvalues ---    0.06422   0.06423   0.12110   0.12167   0.12615
     Eigenvalues ---    0.12615   0.19509   0.19509   0.20378   0.20378
     Eigenvalues ---    0.20378   0.20378   0.25000   0.25000   0.25000
     Eigenvalues ---    0.25000   0.25000   0.25000   0.25000   0.25000
     Eigenvalues ---    0.25000   0.52948   0.52948   0.52948   0.52948
     Eigenvalues ---    0.52948   0.52948   0.52948   0.52948
 RFO step:  Lambda=-2.24117835D-01 EMin= 2.30000000D-03
 Linear search not attempted -- first point.
 Maximum step size (   0.300) exceeded in Quadratic search.
    -- Step size scaled by   0.522
 Iteration  1 RMS(Cart)=  0.06716239 RMS(Int)=  0.00203913
 Iteration  2 RMS(Cart)=  0.00244399 RMS(Int)=  0.00087117
 Iteration  3 RMS(Cart)=  0.00000801 RMS(Int)=  0.00087115
 Iteration  4 RMS(Cart)=  0.00000002 RMS(Int)=  0.00087115
 Variable       Old X    -DE/DX   Delta X   Delta X   Delta X     New X
                                 (Linear)    (Quad)   (Total)
    R1        3.76056   0.05577   0.00000   0.06807   0.06807   3.82862
    R2        3.76056   0.08010   0.00000   0.09776   0.09776   3.85831
    R3        3.76056   0.08007   0.00000   0.09772   0.09771   3.85827
    R4        3.76056   0.05944   0.00000   0.07254   0.07254   3.83309
    R5        4.59203   0.04844   0.00000   0.06034   0.06034   4.65238
    R6        4.59203   0.04249   0.00000   0.05293   0.05293   4.64496
    R7        2.57003  -0.08842   0.00000  -0.06128  -0.06128   2.50875
    R8        2.57003  -0.09391   0.00000  -0.06508  -0.06508   2.50495
    R9        2.57003  -0.09297   0.00000  -0.06443  -0.06443   2.50560
   R10        2.57003  -0.10075   0.00000  -0.06982  -0.06982   2.50021
   R11        2.57003  -0.09582   0.00000  -0.06640  -0.06640   2.50362
   R12        2.57003  -0.10260   0.00000  -0.07110  -0.07110   2.49893
   R13        2.57003  -0.09711   0.00000  -0.06729  -0.06729   2.50273
   R14        2.57003  -0.08741   0.00000  -0.06058  -0.06058   2.50945
    A1        1.57080  -0.00324   0.00000  -0.00354  -0.00352   1.56728
    A2        1.57080   0.01152   0.00000   0.01463   0.01475   1.58555
    A3        1.57080  -0.00408   0.00000  -0.00752  -0.00747   1.56333
    A4        1.57080  -0.00482   0.00000  -0.00859  -0.00857   1.56222
    A5        1.57080  -0.00456   0.00000  -0.00695  -0.00708   1.56372
    A6        1.57080   0.00676   0.00000   0.01198   0.01197   1.58277
    A7        1.57080   0.00049   0.00000   0.00115   0.00118   1.57197
    A8        1.57080  -0.00372   0.00000  -0.00414  -0.00416   1.56663
    A9        1.57080   0.00510   0.00000   0.00901   0.00907   1.57987
   A10        1.57080   0.00380   0.00000   0.00710   0.00711   1.57790
   A11        1.57080  -0.00371   0.00000  -0.00595  -0.00589   1.56490
   A12        1.57080  -0.00353   0.00000  -0.00718  -0.00707   1.56372
   A13        1.91063   0.02299   0.00000   0.03236   0.03145   1.94208
   A14        1.91063   0.02160   0.00000   0.03083   0.02992   1.94055
   A15        1.91063   0.00103   0.00000   0.01521   0.01357   1.92420
   A16        1.91063   0.03564   0.00000   0.04774   0.04545   1.95608
   A17        1.91063   0.05272   0.00000   0.06656   0.06430   1.97494
   A18        1.91063  -0.01602   0.00000  -0.00067  -0.00456   1.90608
   A19        1.91063   0.03314   0.00000   0.04444   0.04241   1.95305
   A20        1.91063   0.05092   0.00000   0.06403   0.06203   1.97266
   A21        1.91063  -0.01563   0.00000  -0.00135  -0.00482   1.90582
   A22        1.91063   0.03163   0.00000   0.04227   0.04113   1.95176
   A23        1.91063   0.02120   0.00000   0.03077   0.02962   1.94025
   A24        1.91063  -0.00188   0.00000   0.01277   0.01074   1.92137
   A25        3.14159  -0.00780   0.00000  -0.01049  -0.01060   3.13100
   A26        3.14159   0.00828   0.00000   0.01109   0.01123   3.15283
   A27        3.14159  -0.00890   0.00000  -0.01612  -0.01604   3.12556
   A28        3.14159  -0.00102   0.00000  -0.00149  -0.00148   3.14011
   A29        3.14159   0.00304   0.00000   0.00603   0.00599   3.14758
   A30        3.14159  -0.00725   0.00000  -0.01313  -0.01321   3.12839
    D1        0.12833   0.01461   0.00000   0.02840   0.02864   0.15697
    D2       -1.96606  -0.01395   0.00000  -0.02892  -0.02920  -1.99526
    D3       -3.01326   0.01157   0.00000   0.02237   0.02264  -2.99062
    D4        1.17553  -0.01699   0.00000  -0.03495  -0.03519   1.14034
    D5       -1.44247   0.00785   0.00000   0.01642   0.01664  -1.42583
    D6        2.74632  -0.02071   0.00000  -0.04090  -0.04120   2.70513
    D7        1.69913   0.01510   0.00000   0.02954   0.02984   1.72897
    D8       -0.39527  -0.01346   0.00000  -0.02777  -0.02799  -0.42326
    D9       -0.86079  -0.00167   0.00000  -0.00384  -0.00396  -0.86475
   D10        1.23361   0.02826   0.00000   0.05769   0.05803   1.29164
   D11       -2.95518  -0.02854   0.00000  -0.05885  -0.05919  -3.01437
   D12       -0.86079   0.00140   0.00000   0.00268   0.00280  -0.85799
   D13        2.48578  -0.01689   0.00000  -0.03335  -0.03390   2.45188
   D14       -1.70301   0.01760   0.00000   0.03582   0.03643  -1.66658
   D15       -0.65581  -0.01588   0.00000  -0.03185  -0.03243  -0.68824
   D16        1.43858   0.01862   0.00000   0.03731   0.03790   1.47649
   D17       -2.22661  -0.02098   0.00000  -0.04087  -0.04141  -2.26802
   D18       -0.13221   0.01352   0.00000   0.02830   0.02892  -0.10329
   D19        0.91499  -0.01208   0.00000  -0.02475  -0.02533   0.88966
   D20        3.00938   0.02241   0.00000   0.04441   0.04500   3.05438
   D21       -2.52842  -0.03128   0.00000  -0.06438  -0.06490  -2.59331
   D22       -0.43402  -0.00226   0.00000  -0.00496  -0.00510  -0.43912
   D23       -0.43402   0.00123   0.00000   0.00235   0.00241  -0.43161
   D24        1.66037   0.03024   0.00000   0.06177   0.06221   1.72258
   D25       -0.98912  -0.01718   0.00000  -0.03344  -0.03395  -1.02306
   D26        1.10528   0.01515   0.00000   0.03133   0.03189   1.13717
   D27        2.15247  -0.01414   0.00000  -0.02741  -0.02797   2.12450
   D28       -2.03632   0.01820   0.00000   0.03736   0.03787  -1.99845
   D29        0.58168  -0.01042   0.00000  -0.02146  -0.02204   0.55964
   D30        2.67607   0.02191   0.00000   0.04331   0.04380   2.71987
   D31       -2.55991  -0.01767   0.00000  -0.03458  -0.03507  -2.59499
   D32       -0.46552   0.01466   0.00000   0.03018   0.03077  -0.43475
   D33        1.26899  -0.01609   0.00000  -0.03294  -0.03319   1.23579
   D34       -2.91980   0.01396   0.00000   0.02743   0.02777  -2.89203
   D35       -1.87261  -0.01710   0.00000  -0.03443  -0.03474  -1.90734
   D36        0.22179   0.01295   0.00000   0.02594   0.02623   0.24802
   D37       -0.30181  -0.01200   0.00000  -0.02542  -0.02564  -0.32745
   D38        1.79259   0.01805   0.00000   0.03495   0.03532   1.82791
   D39        2.83978  -0.02090   0.00000  -0.04154  -0.04187   2.79791
   D40       -1.34901   0.00915   0.00000   0.01883   0.01909  -1.32991
         Item               Value     Threshold  Converged?
 Maximum Force            0.102598     0.000450     NO 
 RMS     Force            0.037625     0.000300     NO 
 Maximum Displacement     0.243238     0.001800     NO 
 RMS     Displacement     0.065609     0.001200     NO 
 Predicted change in Energy=-1.019568D-01
 GradGradGradGradGradGradGradGradGradGradGradGradGradGradGradGradGradGrad

                          Input orientation:                          
 ---------------------------------------------------------------------
 Center     Atomic      Atomic             Coordinates (Angstroms)
 Number     Number       Type             X           Y           Z
 ---------------------------------------------------------------------
      1         78           0       -0.315244    0.342243    0.006073
      2          7           0       -0.301962   -1.683711   -0.003375
      3          8           0        0.924043   -2.158210    0.181597
      4          8           0       -0.813542   -2.160867   -1.129308
      5          7           0        1.726451    0.348499   -0.004265
      6          8           0        2.217897    1.301489   -0.784213
      7          8           0        2.252500    0.460826    1.204507
      8          7           0       -0.307011    2.383925    0.012467
      9          7           0       -2.343561    0.358871    0.004296
     10          8           0       -2.840348   -0.046702    1.163054
     11          8           0       -2.812968    1.564153   -0.296350
     12          8           0        0.340423    2.872224    1.060154
     13          8           0        0.200812    2.902575   -1.092883
     14         35           0       -0.332160    0.312272    2.467766
     15         35           0       -0.330555    0.332535   -2.451868
 ---------------------------------------------------------------------
                    Distance matrix (angstroms):
                    1          2          3          4          5
     1  Pt   0.000000
     2  N    2.026020   0.000000
     3  O    2.796231   1.327574   0.000000
     4  O    2.793376   1.325563   2.176621   0.000000
     5  N    2.041731   2.871295   2.638558   3.743555   0.000000
     6  O    2.821614   3.983819   3.817900   4.614826   1.325907
     7  O    2.836127   3.547294   3.109741   4.660534   1.323055
     8  N    2.041709   4.067670   4.709043   4.713317   2.877187
     9  N    2.028386   2.887962   4.128482   3.158338   4.070034
    10  O    2.804645   3.237863   4.426326   3.719216   4.730166
    11  O    2.796989   4.115775   5.296194   4.308979   4.708445
    12  O    2.818118   4.722318   5.139819   5.608688   3.069731
    13  O    2.833605   4.740656   5.268671   5.164173   3.167960
    14  Br   2.461933   3.176695   3.592756   4.391706   3.217161
    15  Br   2.458008   3.171937   3.835748   2.863476   3.197232
                    6          7          8          9         10
     6  O    0.000000
     7  O    2.159379   0.000000
     8  N    2.860336   3.416192   0.000000
     9  N    4.724106   4.751282   2.872012   0.000000
    10  O    5.585276   5.118242   3.694536   1.324389   0.000000
    11  O    5.061284   5.397117   2.654659   1.327945   2.173813
    12  O    3.064932   3.080863   1.324860   3.825644   4.318335
    13  O    2.593720   3.930593   1.322376   3.761392   4.799598
    14  Br   4.249318   2.880687   3.212612   3.180658   2.849937
    15  Br   3.196021   4.478584   3.206509   3.175788   4.417075
                   11         12         13         14         15
    11  O    0.000000
    12  O    3.673558   0.000000
    13  O    3.392448   2.157772   0.000000
    14  Br   3.919432   2.997848   4.435307   0.000000
    15  Br   3.510771   4.385719   2.955384   4.919676   0.000000
 Stoichiometry    Br2N4O8Pt(2-)
 Framework group  C1[X(Br2N4O8Pt)]
 Deg. of freedom    39
 Full point group                 C1      NOp   1
 Largest Abelian subgroup         C1      NOp   1
 Largest concise Abelian subgroup C1      NOp   1
                         Standard orientation:                         
 ---------------------------------------------------------------------
 Center     Atomic      Atomic             Coordinates (Angstroms)
 Number     Number       Type             X           Y           Z
 ---------------------------------------------------------------------
      1         78           0        0.009709   -0.088003    0.000179
      2          7           0        0.068161   -1.495652    1.456154
      3          8           0       -0.095786   -0.953707    2.656932
      4          8           0        1.201281   -2.182192    1.413501
      5          7           0        0.035733    1.375278    1.423836
      6          8           0        0.796240    2.401924    1.069357
      7          8           0       -1.171281    1.816002    1.739043
      8          7           0       -0.045901    1.346057   -1.452045
      9          7           0       -0.004652   -1.525579   -1.430735
     10          8           0       -1.157102   -2.177396   -1.462359
     11          8           0        0.263163   -1.014408   -2.626735
     12          8           0       -1.100016    2.138346   -1.324081
     13          8           0        1.050513    2.084256   -1.492247
     14         35           0       -2.450600   -0.148987    0.065567
     15         35           0        2.466976   -0.077845   -0.059331
 ---------------------------------------------------------------------
 Rotational constants (GHZ):      0.4485324      0.3147099      0.3045676
 Basis read from rwf:  (5D, 7F)
 Pseudo-potential data read from rwf file.
 There are   274 symmetry adapted cartesian basis functions of A   symmetry.
 There are   254 symmetry adapted basis functions of A   symmetry.
   254 basis functions,   503 primitive gaussians,   274 cartesian basis functions
    91 alpha electrons       91 beta electrons
       nuclear repulsion energy      2414.5094172015 Hartrees.
 NAtoms=   15 NActive=   15 NUniq=   15 SFac= 1.00D+00 NAtFMM=   60 NAOKFM=F Big=F
 Integral buffers will be    131072 words long.
 Raffenetti 2 integral format.
 Two-electron integral symmetry is turned on.
 ------------------------------------------------------------------------------
 Polarizable Continuum Model (PCM)
 =================================
 Model                : PCM (using non-symmetric T matrix).
 Atomic radii         : UFF (Universal Force Field).
 Polarization charges : Total charges.
 Charge compensation  : None.
 Solution method      : On-the-fly selection.
 Cavity type          : Scaled VdW (van der Waals Surface) (Alpha=1.100).
 Cavity algorithm     : GePol (No added spheres)
                        Default sphere list used, NSphG=   15.
                        Lebedev-Laikov grids with approx.  5.0 points / Ang**2.
                        Smoothing algorithm: Karplus/York (Gamma=1.0000).
                        Polarization charges: spherical gaussians, with
                                              point-specific exponents (IZeta= 3).
                        Self-potential: point-specific (ISelfS= 7).
                        Self-field    : sphere-specific E.n sum rule (ISelfD= 2).
 1st derivatives      : Analytical E(r).r(x)/FMM algorithm (CHGder, D1EAlg=3).
                        Cavity 1st derivative terms included.
 Solvent              : Water, Eps=  78.355300 Eps(inf)=   1.777849
 ------------------------------------------------------------------------------
 Spheres list:
 ISph  on   Nord     Re0    Alpha      Xe            Ye            Ze
    1  Pt      1    1.3770  1.100      0.009709     -0.088003      0.000179
    2   N      2    1.8300  1.100      0.068161     -1.495652      1.456154
    3   O      3    1.7500  1.100     -0.095786     -0.953707      2.656932
    4   O      4    1.7500  1.100      1.201281     -2.182192      1.413501
    5   N      5    1.8300  1.100      0.035733      1.375278      1.423836
    6   O      6    1.7500  1.100      0.796240      2.401924      1.069357
    7   O      7    1.7500  1.100     -1.171281      1.816002      1.739043
    8   N      8    1.8300  1.100     -0.045901      1.346057     -1.452045
    9   N      9    1.8300  1.100     -0.004652     -1.525579     -1.430735
   10   O     10    1.7500  1.100     -1.157102     -2.177396     -1.462359
   11   O     11    1.7500  1.100      0.263163     -1.014408     -2.626735
   12   O     12    1.7500  1.100     -1.100016      2.138346     -1.324081
   13   O     13    1.7500  1.100      1.050513      2.084256     -1.492247
   14  Br     14    2.0945  1.100     -2.450600     -0.148987      0.065567
   15  Br     15    2.0945  1.100      2.466976     -0.077845     -0.059331
 ------------------------------------------------------------------------------
 One-electron integrals computed using PRISM.
   1 Symmetry operations used in ECPInt.
 ECPInt:  NShTT=    5460 NPrTT=   24557 LenC2=    5103 LenP2D=   15883.
 LDataN:  DoStor=T MaxTD1= 6 Len=  172
 NBasis=   254 RedAO= T EigKep=  2.94D-03  NBF=   254
 NBsUse=   254 1.00D-06 EigRej= -1.00D+00 NBFU=   254
 Defaulting to unpruned grid for atomic number  78.
 Initial guess from the checkpoint file:  "/home/scr/diego/Gau-9421.chk"
 B after Tr=     0.000000    0.000000    0.000000
         Rot=    0.999952    0.008939    0.002503    0.003067 Ang=   1.12 deg.
 ExpMin= 2.90D-02 ExpMax= 1.13D+05 ExpMxC= 1.70D+04 IAcc=3 IRadAn=         5 AccDes= 0.00D+00
 Harris functional with IExCor=  402 and IRadAn=       5 diagonalized for initial guess.
 HarFok:  IExCor=  402 AccDes= 0.00D+00 IRadAn=         5 IDoV= 1 UseB2=F ITyADJ=14
 ICtDFT=  3500011 ScaDFX=  1.000000  1.000000  1.000000  1.000000
 Defaulting to unpruned grid for atomic number  78.
 Defaulting to unpruned grid for atomic number  78.
 Defaulting to unpruned grid for atomic number  78.
 Defaulting to unpruned grid for atomic number  78.
 Defaulting to unpruned grid for atomic number  78.
 Defaulting to unpruned grid for atomic number  78.
 Defaulting to unpruned grid for atomic number  78.
 Defaulting to unpruned grid for atomic number  78.
 FoFCou: FMM=F IPFlag=           0 FMFlag=      100000 FMFlg1=           0
         NFxFlg=           0 DoJE=T BraDBF=F KetDBF=T FulRan=T
         wScrn=  0.000000 ICntrl=     500 IOpCl=  0 I1Cent=   200000004 NGrid=           0
         NMat0=    1 NMatS0=      1 NMatT0=    0 NMatD0=    1 NMtDS0=    0 NMtDT0=    0
 Petite list used in FoFCou.
 Keep R1 ints in memory in canonical form, NReq=535056607.
 Requested convergence on RMS density matrix=1.00D-08 within 128 cycles.
 Requested convergence on MAX density matrix=1.00D-06.
 Requested convergence on             energy=1.00D-06.
 No special actions if energy rises.
 Defaulting to unpruned grid for atomic number  78.
 Defaulting to unpruned grid for atomic number  78.
 Defaulting to unpruned grid for atomic number  78.
 Defaulting to unpruned grid for atomic number  78.
 Defaulting to unpruned grid for atomic number  78.
 Defaulting to unpruned grid for atomic number  78.
 Defaulting to unpruned grid for atomic number  78.
 Defaulting to unpruned grid for atomic number  78.
 Inv3:  Mode=1 IEnd=     9948123.
 Iteration    1 A*A^-1 deviation from unit magnitude is 6.88D-15 for    565.
 Iteration    1 A*A^-1 deviation from orthogonality  is 3.79D-15 for   1334    136.
 Iteration    1 A^-1*A deviation from unit magnitude is 7.11D-15 for    919.
 Iteration    1 A^-1*A deviation from orthogonality  is 1.08D-08 for   1330   1327.
 Iteration    2 A*A^-1 deviation from unit magnitude is 9.10D-15 for    487.
 Iteration    2 A*A^-1 deviation from orthogonality  is 6.52D-15 for    696    546.
 Iteration    2 A^-1*A deviation from unit magnitude is 1.55D-15 for    363.
 Iteration    2 A^-1*A deviation from orthogonality  is 6.41D-16 for   1671    373.
 Error on total polarization charges =  0.01007
 SCF Done:  E(RB3LYP) =  -6086.86887950     A.U. after   17 cycles
            NFock= 17  Conv=0.95D-08     -V/T= 2.0156
   1 Symmetry operations used in ECPInt.
 ECPInt:  NShTT=    5460 NPrTT=   24557 LenC2=    5103 LenP2D=   15883.
 LDataN:  DoStor=T MaxTD1= 7 Len=  274
 D1PCM: PCM CHGder 1st derivatives, ID1Alg=3 FixD1E=F DoIter=F DoCFld=F I1PDM=0.
 Calling FoFJK, ICntrl=      2127 FMM=F ISym2X=0 I1Cent= 0 IOpClX= 0 NMat=1 NMatS=1 NMatT=0.
 Defaulting to unpruned grid for atomic number  78.
 Defaulting to unpruned grid for atomic number  78.
 Defaulting to unpruned grid for atomic number  78.
 Defaulting to unpruned grid for atomic number  78.
 Defaulting to unpruned grid for atomic number  78.
 Defaulting to unpruned grid for atomic number  78.
 Defaulting to unpruned grid for atomic number  78.
 Defaulting to unpruned grid for atomic number  78.
 ***** Axes restored to original set *****
 -------------------------------------------------------------------
 Center     Atomic                   Forces (Hartrees/Bohr)
 Number     Number              X              Y              Z
 -------------------------------------------------------------------
      1       78          -0.037070126   -0.037281319   -0.005060591
      2        7           0.097003424   -0.088713217   -0.124107837
      3        8          -0.076250864    0.024432496    0.025534786
      4        8          -0.007561821    0.024795061    0.087346581
      5        7           0.101046799    0.156117516    0.068494599
      6        8          -0.027107158   -0.082910285    0.012677293
      7        8          -0.026500098   -0.050787580   -0.073518560
      8        7           0.168307953    0.100450373   -0.017097232
      9        7          -0.090514432    0.106406237    0.118414366
     10        8           0.025089679   -0.015200931   -0.087943212
     11        8           0.025244566   -0.076569826   -0.019778555
     12        8          -0.072075980   -0.026419106   -0.040275197
     13        8          -0.073248080   -0.026089671    0.053169723
     14       35          -0.004690851   -0.004901727    0.033527844
     15       35          -0.001673009   -0.003328021   -0.031384007
 -------------------------------------------------------------------
 Cartesian Forces:  Max     0.168307953 RMS     0.068776259

 GradGradGradGradGradGradGradGradGradGradGradGradGradGradGradGradGradGrad
 Berny optimization.
 Using GEDIIS/GDIIS optimizer.
 FormGI is forming the generalized inverse of G from B-inverse, IUseBI=4.
 Internal  Forces:  Max     0.082777975 RMS     0.029565079
 Search for a local minimum.
 Step number   2 out of a maximum of   94
 All quantities printed in internal units (Hartrees-Bohrs-Radians)
 Mixed Optimization -- RFO/linear search
 Update second derivatives using D2CorX and points    1    2
 DE= -1.03D-01 DEPred=-1.02D-01 R= 1.01D+00
 TightC=F SS=  1.41D+00  RLast= 3.71D-01 DXNew= 5.0454D-01 1.1115D+00
 Trust test= 1.01D+00 RLast= 3.71D-01 DXMaxT set to 5.05D-01
 ITU=  1  0
 Use linear search instead of GDIIS.
 Linear search step of   0.596 exceeds DXMaxT=   0.505 but not scaled.
 Quartic linear search produced a step of  2.00000.
 Iteration  1 RMS(Cart)=  0.12472583 RMS(Int)=  0.00856356
 Iteration  2 RMS(Cart)=  0.00828700 RMS(Int)=  0.00466503
 Iteration  3 RMS(Cart)=  0.00009706 RMS(Int)=  0.00466441
 Iteration  4 RMS(Cart)=  0.00000107 RMS(Int)=  0.00466441
 Iteration  5 RMS(Cart)=  0.00000001 RMS(Int)=  0.00466441
 Variable       Old X    -DE/DX   Delta X   Delta X   Delta X     New X
                                 (Linear)    (Quad)   (Total)
    R1        3.82862   0.03964   0.13613   0.00000   0.13614   3.96476
    R2        3.85831   0.04747   0.19551   0.00000   0.19551   4.05383
    R3        3.85827   0.04800   0.19543   0.00000   0.19543   4.05370
    R4        3.83309   0.04030   0.14508   0.00000   0.14508   3.97817
    R5        4.65238   0.03362   0.12069   0.00000   0.12069   4.77307
    R6        4.64496   0.03141   0.10586   0.00000   0.10586   4.75082
    R7        2.50875  -0.07562  -0.12255   0.00000  -0.12255   2.38620
    R8        2.50495  -0.08020  -0.13015   0.00000  -0.13015   2.37480
    R9        2.50560  -0.07713  -0.12885   0.00000  -0.12885   2.37675
   R10        2.50021  -0.08199  -0.13963   0.00000  -0.13963   2.36058
   R11        2.50362  -0.07681  -0.13281   0.00000  -0.13281   2.37082
   R12        2.49893  -0.08278  -0.14220   0.00000  -0.14220   2.35673
   R13        2.50273  -0.08174  -0.13459   0.00000  -0.13459   2.36814
   R14        2.50945  -0.07391  -0.12115   0.00000  -0.12115   2.38830
    A1        1.56728   0.00162  -0.00703   0.00000  -0.00691   1.56037
    A2        1.58555   0.01241   0.02950   0.00000   0.02993   1.61547
    A3        1.56333  -0.00350  -0.01493   0.00000  -0.01459   1.54874
    A4        1.56222  -0.00089  -0.01714   0.00000  -0.01700   1.54522
    A5        1.56372  -0.01295  -0.01416   0.00000  -0.01464   1.54907
    A6        1.58277   0.00257   0.02394   0.00000   0.02392   1.60669
    A7        1.57197   0.00099   0.00236   0.00000   0.00252   1.57449
    A8        1.56663  -0.00109  -0.00832   0.00000  -0.00845   1.55818
    A9        1.57987   0.00418   0.01814   0.00000   0.01847   1.59833
   A10        1.57790   0.00039   0.01421   0.00000   0.01425   1.59215
   A11        1.56490  -0.00147  -0.01179   0.00000  -0.01140   1.55350
   A12        1.56372  -0.00181  -0.01415   0.00000  -0.01354   1.55018
   A13        1.94208   0.01122   0.06289   0.00000   0.05704   1.99912
   A14        1.94055   0.01491   0.05983   0.00000   0.05398   1.99453
   A15        1.92420   0.00847   0.02714   0.00000   0.01831   1.94251
   A16        1.95608   0.00877   0.09090   0.00000   0.07694   2.03302
   A17        1.97494   0.02070   0.12861   0.00000   0.11503   2.08997
   A18        1.90608   0.00750  -0.00911   0.00000  -0.02800   1.87808
   A19        1.95305   0.00910   0.08483   0.00000   0.07240   2.02544
   A20        1.97266   0.02081   0.12406   0.00000   0.11198   2.08464
   A21        1.90582   0.00689  -0.00964   0.00000  -0.02670   1.87912
   A22        1.95176   0.01922   0.08226   0.00000   0.07506   2.02682
   A23        1.94025   0.00703   0.05924   0.00000   0.05187   1.99213
   A24        1.92137   0.00862   0.02148   0.00000   0.01073   1.93210
   A25        3.13100  -0.01133  -0.02119   0.00000  -0.02155   3.10945
   A26        3.15283   0.01404   0.02247   0.00000   0.02302   3.17585
   A27        3.12556  -0.00439  -0.03208   0.00000  -0.03159   3.09396
   A28        3.14011  -0.00052  -0.00296   0.00000  -0.00286   3.13726
   A29        3.14758   0.00095   0.01198   0.00000   0.01183   3.15942
   A30        3.12839  -0.00355  -0.02641   0.00000  -0.02689   3.10150
    D1        0.15697   0.01367   0.05727   0.00000   0.05851   0.21548
    D2       -1.99526  -0.01609  -0.05840   0.00000  -0.05973  -2.05499
    D3       -2.99062   0.01272   0.04529   0.00000   0.04668  -2.94394
    D4        1.14034  -0.01704  -0.07038   0.00000  -0.07156   1.06878
    D5       -1.42583   0.01110   0.03328   0.00000   0.03438  -1.39145
    D6        2.70513  -0.01866  -0.08239   0.00000  -0.08386   2.62127
    D7        1.72897   0.01465   0.05969   0.00000   0.06127   1.79024
    D8       -0.42326  -0.01511  -0.05598   0.00000  -0.05697  -0.48023
    D9       -0.86475  -0.00042  -0.00792   0.00000  -0.00811  -0.87286
   D10        1.29164   0.02755   0.11606   0.00000   0.11695   1.40858
   D11       -3.01437  -0.02755  -0.11837   0.00000  -0.11944  -3.13381
   D12       -0.85799   0.00042   0.00560   0.00000   0.00562  -0.85237
   D13        2.45188  -0.01557  -0.06781   0.00000  -0.07013   2.38175
   D14       -1.66658   0.01749   0.07285   0.00000   0.07547  -1.59111
   D15       -0.68824  -0.01505  -0.06485   0.00000  -0.06727  -0.75551
   D16        1.47649   0.01801   0.07581   0.00000   0.07832   1.55481
   D17       -2.26802  -0.01906  -0.08282   0.00000  -0.08506  -2.35308
   D18       -0.10329   0.01400   0.05784   0.00000   0.06053  -0.04276
   D19        0.88966  -0.01468  -0.05066   0.00000  -0.05309   0.83657
   D20        3.05438   0.01838   0.09001   0.00000   0.09251  -3.13629
   D21       -2.59331  -0.02822  -0.12980   0.00000  -0.13156  -2.72488
   D22       -0.43912  -0.00103  -0.01020   0.00000  -0.01042  -0.44954
   D23       -0.43161   0.00002   0.00482   0.00000   0.00457  -0.42704
   D24        1.72258   0.02721   0.12442   0.00000   0.12571   1.84830
   D25       -1.02306  -0.01563  -0.06789   0.00000  -0.07007  -1.09313
   D26        1.13717   0.01661   0.06379   0.00000   0.06631   1.20348
   D27        2.12450  -0.01471  -0.05594   0.00000  -0.05838   2.06612
   D28       -1.99845   0.01754   0.07574   0.00000   0.07800  -1.92045
   D29        0.55964  -0.01321  -0.04408   0.00000  -0.04666   0.51298
   D30        2.71987   0.01904   0.08760   0.00000   0.08972   2.80959
   D31       -2.59499  -0.01653  -0.07015   0.00000  -0.07217  -2.66716
   D32       -0.43475   0.01572   0.06153   0.00000   0.06421  -0.37055
   D33        1.23579  -0.01699  -0.06639   0.00000  -0.06752   1.16827
   D34       -2.89203   0.01341   0.05554   0.00000   0.05721  -2.83483
   D35       -1.90734  -0.01759  -0.06947   0.00000  -0.07088  -1.97822
   D36        0.24802   0.01281   0.05246   0.00000   0.05384   0.30186
   D37       -0.32745  -0.01340  -0.05128   0.00000  -0.05222  -0.37967
   D38        1.82791   0.01701   0.07065   0.00000   0.07251   1.90042
   D39        2.79791  -0.01800  -0.08374   0.00000  -0.08537   2.71254
   D40       -1.32991   0.01240   0.03819   0.00000   0.03935  -1.29056
         Item               Value     Threshold  Converged?
 Maximum Force            0.082778     0.000450     NO 
 RMS     Force            0.029565     0.000300     NO 
 Maximum Displacement     0.417566     0.001800     NO 
 RMS     Displacement     0.120098     0.001200     NO 
 Predicted change in Energy=-1.249586D-01
 GradGradGradGradGradGradGradGradGradGradGradGradGradGradGradGradGradGrad

                          Input orientation:                          
 ---------------------------------------------------------------------
 Center     Atomic      Atomic             Coordinates (Angstroms)
 Number     Number       Type             X           Y           Z
 ---------------------------------------------------------------------
      1         78           0       -0.306938    0.349048    0.018614
      2          7           0       -0.265012   -1.748405   -0.009427
      3          8           0        0.870848   -2.253287    0.212788
      4          8           0       -0.802789   -2.262466   -1.022248
      5          7           0        1.837920    0.369977   -0.012895
      6          8           0        2.379409    1.201575   -0.785615
      7          8           0        2.473467    0.383882    1.062418
      8          7           0       -0.280999    2.493938    0.036975
      9          7           0       -2.411445    0.401104    0.012988
     10          8           0       -2.977143   -0.039725    1.040648
     11          8           0       -2.899970    1.517590   -0.321791
     12          8           0        0.258510    3.029874    1.034810
     13          8           0        0.101388    3.111061   -0.977061
     14         35           0       -0.359625    0.258535    2.542241
     15         35           0       -0.352845    0.317423   -2.494793
 ---------------------------------------------------------------------
                    Distance matrix (angstroms):
                    1          2          3          4          5
     1  Pt   0.000000
     2  N    2.098059   0.000000
     3  O    2.863046   1.262721   0.000000
     4  O    2.854693   1.256689   2.080014   0.000000
     5  N    2.145192   2.984942   2.804938   3.862887   0.000000
     6  O    2.930879   4.037055   3.899825   4.709773   1.257721
     7  O    2.970083   3.632460   3.200768   4.699238   1.249164
     8  N    2.145125   4.242626   4.888129   4.900775   3.000586
     9  N    2.105158   3.037773   4.226010   3.279344   4.249559
    10  O    2.885427   3.373114   4.515777   3.731478   4.945973
    11  O    2.864468   4.208004   5.359511   4.379228   4.884674
    12  O    2.922193   4.918989   5.381679   5.776393   3.266079
    13  O    2.964256   4.968397   5.548337   5.449255   3.385070
    14  Br   2.525799   3.247733   3.640009   4.388328   3.371995
    15  Br   2.514025   3.233017   3.928990   3.004441   3.310896
                    6          7          8          9         10
     6  O    0.000000
     7  O    2.023042   0.000000
     8  N    3.069956   3.618142   0.000000
     9  N    4.922480   4.996395   2.986525   0.000000
    10  O    5.793852   5.467089   3.833536   1.253167   0.000000
    11  O    5.309128   5.663493   2.817973   1.263834   2.070610
    12  O    3.339886   3.450807   1.254581   3.883712   4.460037
    13  O    2.978619   4.150150   1.247129   3.826016   4.845199
    14  Br   4.412059   3.198749   3.358507   3.259972   3.032350
    15  Br   3.341890   4.543810   3.339495   3.245582   4.417447
                   11         12         13         14         15
    11  O    0.000000
    12  O    3.755445   0.000000
    13  O    3.460734   2.019630   0.000000
    14  Br   4.030044   3.214772   4.553562   0.000000
    15  Br   3.556710   4.493245   3.211581   5.037383   0.000000
 Stoichiometry    Br2N4O8Pt(2-)
 Framework group  C1[X(Br2N4O8Pt)]
 Deg. of freedom    39
 Full point group                 C1      NOp   1
 Largest Abelian subgroup         C1      NOp   1
 Largest concise Abelian subgroup C1      NOp   1
                         Standard orientation:                         
 ---------------------------------------------------------------------
 Center     Atomic      Atomic             Coordinates (Angstroms)
 Number     Number       Type             X           Y           Z
 ---------------------------------------------------------------------
      1         78           0        0.002920   -0.070443    0.002739
      2          7           0        0.045700   -1.433932    1.596766
      3          8           0       -0.157358   -0.919974    2.732142
      4          8           0        1.054427   -2.183327    1.608766
      5          7           0        0.063972    1.545265    1.412564
      6          8           0        0.838481    2.498125    1.140432
      7          8           0       -1.002510    2.035485    1.840011
      8          7           0       -0.029561    1.375218   -1.581739
      9          7           0       -0.020935   -1.607702   -1.435301
     10          8           0       -1.053327   -2.317322   -1.467490
     11          8           0        0.299504   -1.232160   -2.598728
     12          8           0       -1.023429    2.140365   -1.609139
     13          8           0        0.985481    2.065226   -1.802893
     14         35           0       -2.520526   -0.155217    0.071267
     15         35           0        2.515607   -0.140461   -0.039966
 ---------------------------------------------------------------------
 Rotational constants (GHZ):      0.4087228      0.2977129      0.2913352
 Basis read from rwf:  (5D, 7F)
 Pseudo-potential data read from rwf file.
 There are   274 symmetry adapted cartesian basis functions of A   symmetry.
 There are   254 symmetry adapted basis functions of A   symmetry.
   254 basis functions,   503 primitive gaussians,   274 cartesian basis functions
    91 alpha electrons       91 beta electrons
       nuclear repulsion energy      2351.1232847371 Hartrees.
 NAtoms=   15 NActive=   15 NUniq=   15 SFac= 1.00D+00 NAtFMM=   60 NAOKFM=F Big=F
 Integral buffers will be    131072 words long.
 Raffenetti 2 integral format.
 Two-electron integral symmetry is turned on.
 ------------------------------------------------------------------------------
 Polarizable Continuum Model (PCM)
 =================================
 Model                : PCM (using non-symmetric T matrix).
 Atomic radii         : UFF (Universal Force Field).
 Polarization charges : Total charges.
 Charge compensation  : None.
 Solution method      : On-the-fly selection.
 Cavity type          : Scaled VdW (van der Waals Surface) (Alpha=1.100).
 Cavity algorithm     : GePol (No added spheres)
                        Default sphere list used, NSphG=   15.
                        Lebedev-Laikov grids with approx.  5.0 points / Ang**2.
                        Smoothing algorithm: Karplus/York (Gamma=1.0000).
                        Polarization charges: spherical gaussians, with
                                              point-specific exponents (IZeta= 3).
                        Self-potential: point-specific (ISelfS= 7).
                        Self-field    : sphere-specific E.n sum rule (ISelfD= 2).
 1st derivatives      : Analytical E(r).r(x)/FMM algorithm (CHGder, D1EAlg=3).
                        Cavity 1st derivative terms included.
 Solvent              : Water, Eps=  78.355300 Eps(inf)=   1.777849
 ------------------------------------------------------------------------------
 Spheres list:
 ISph  on   Nord     Re0    Alpha      Xe            Ye            Ze
    1  Pt      1    1.3770  1.100      0.002920     -0.070443      0.002739
    2   N      2    1.8300  1.100      0.045700     -1.433932      1.596766
    3   O      3    1.7500  1.100     -0.157358     -0.919974      2.732142
    4   O      4    1.7500  1.100      1.054427     -2.183327      1.608766
    5   N      5    1.8300  1.100      0.063972      1.545265      1.412564
    6   O      6    1.7500  1.100      0.838481      2.498125      1.140432
    7   O      7    1.7500  1.100     -1.002510      2.035485      1.840011
    8   N      8    1.8300  1.100     -0.029561      1.375218     -1.581739
    9   N      9    1.8300  1.100     -0.020935     -1.607702     -1.435301
[...]
 ! A20   A(1,8,13)             119.4161         -DE/DX =    0.0                 !
 ! A21   A(12,8,13)            123.1754         -DE/DX =    0.0                 !
 ! A22   A(1,9,10)             117.4954         -DE/DX =    0.0                 !
 ! A23   A(1,9,11)             119.3204         -DE/DX =    0.0                 !
 ! A24   A(10,9,11)            123.1779         -DE/DX =    0.0                 !
 ! A25   L(2,1,8,5,-1)         180.0101         -DE/DX =    0.0                 !
 ! A26   L(5,1,9,2,-1)         180.0068         -DE/DX =    0.0                 !
 ! A27   L(14,1,15,2,-1)       179.9925         -DE/DX =    0.0                 !
 ! A28   L(2,1,8,5,-2)         179.9959         -DE/DX =    0.0                 !
 ! A29   L(5,1,9,2,-2)         179.9999         -DE/DX =    0.0                 !
 ! A30   L(14,1,15,2,-2)       180.0049         -DE/DX =    0.0                 !
 ! D1    D(5,1,2,3)             39.8458         -DE/DX =    0.0                 !
 ! D2    D(5,1,2,4)           -140.4839         -DE/DX =    0.0                 !
 ! D3    D(9,1,2,3)           -140.1541         -DE/DX =    0.0                 !
 ! D4    D(9,1,2,4)             39.5162         -DE/DX =    0.0                 !
 ! D5    D(14,1,2,3)           -51.3009         -DE/DX =    0.0                 !
 ! D6    D(14,1,2,4)           128.3694         -DE/DX =    0.0                 !
 ! D7    D(15,1,2,3)           128.6943         -DE/DX =    0.0                 !
 ! D8    D(15,1,2,4)           -51.6354         -DE/DX =    0.0                 !
 ! D9    D(3,2,8,12)             0.2724         -DE/DX =    0.0                 !
 ! D10   D(3,2,8,13)           179.9442         -DE/DX =    0.0                 !
 ! D11   D(4,2,8,12)           179.9409         -DE/DX =    0.0                 !
 ! D12   D(4,2,8,13)            -0.3872         -DE/DX =    0.0                 !
 ! D13   D(2,1,5,6)            136.2222         -DE/DX =    0.0                 !
 ! D14   D(2,1,5,7)            -44.6666         -DE/DX =    0.0                 !
 ! D15   D(8,1,5,6)            -43.7736         -DE/DX =    0.0                 !
 ! D16   D(8,1,5,7)            135.3375         -DE/DX =    0.0                 !
 ! D17   D(14,1,5,6)          -132.12           -DE/DX =    0.0                 !
 ! D18   D(14,1,5,7)            46.9912         -DE/DX =    0.0                 !
 ! D19   D(15,1,5,6)            47.8877         -DE/DX =    0.0                 !
 ! D20   D(15,1,5,7)          -133.0011         -DE/DX =    0.0                 !
 ! D21   D(6,5,9,10)           180.0641         -DE/DX =    0.0                 !
 ! D22   D(6,5,9,11)             0.9434         -DE/DX =    0.0                 !
 ! D23   D(7,5,9,10)            -0.8274         -DE/DX =    0.0                 !
 ! D24   D(7,5,9,11)           180.0519         -DE/DX =    0.0                 !
 ! D25   D(5,1,8,12)           -39.5733         -DE/DX =    0.0                 !
 ! D26   D(5,1,8,13)           140.0968         -DE/DX =    0.0                 !
 ! D27   D(9,1,8,12)           140.4266         -DE/DX =    0.0                 !
 ! D28   D(9,1,8,13)           -39.9033         -DE/DX =    0.0                 !
 ! D29   D(14,1,8,12)           51.5729         -DE/DX =    0.0                 !
 ! D30   D(14,1,8,13)         -128.757          -DE/DX =    0.0                 !
 ! D31   D(15,1,8,12)         -128.4222         -DE/DX =    0.0                 !
 ! D32   D(15,1,8,13)           51.2478         -DE/DX =    0.0                 !
 ! D33   D(2,1,9,10)            43.8394         -DE/DX =    0.0                 !
 ! D34   D(2,1,9,11)          -135.2787         -DE/DX =    0.0                 !
 ! D35   D(8,1,9,10)          -136.1647         -DE/DX =    0.0                 !
 ! D36   D(8,1,9,11)            44.7172         -DE/DX =    0.0                 !
 ! D37   D(14,1,9,10)          -47.8183         -DE/DX =    0.0                 !
 ! D38   D(14,1,9,11)          133.0636         -DE/DX =    0.0                 !
 ! D39   D(15,1,9,10)          132.174          -DE/DX =    0.0                 !
 ! D40   D(15,1,9,11)          -46.9441         -DE/DX =    0.0                 !
 --------------------------------------------------------------------------------
 GradGradGradGradGradGradGradGradGradGradGradGradGradGradGradGradGradGrad

 1\1\GINC-NEQC17\Freq\RB3LYP\Gen\Br2N4O8Pt1(2-)\DIEGO\18-Aug-2021\0\\#N
  Geom=AllCheck Guess=TCheck SCRF=Check GenChk RB3LYP/ChkBas Freq\\Estr
 utura 62\\-2,1\Pt,-0.1822361828,0.4752666541,0.0225345521\N,-0.2560003
 744,-1.6667668887,-0.0615773593\O,0.5353148395,-2.3186104308,0.5950548
 774\O,-1.1089809048,-2.1720608947,-0.7738009938\N,1.9606071494,0.51988
 3481,0.0301310527\O,2.5097023472,1.3419728541,-0.6858841996\O,2.570359
 4259,-0.2509700249,0.7482424456\N,-0.1088446245,2.6174494401,0.1064964
 344\N,-2.3252689574,0.4309004613,0.0149514193\O,-2.8744823341,-0.39035
 3739,0.7318426424\O,-2.9348774699,1.2011529618,-0.7039104023\O,0.74334
 00634,3.1229918204,0.8195138378\O,-0.8995906099,3.2690746271,-0.551007
 7099\Br,-0.2379074618,0.4481289482,2.5802384288\Br,-0.126359946,0.5020
 6356,-2.5351731457\\Version=EM64L-G09RevD.01\State=1-A\HF=-6087.144372
 2\RMSD=7.454e-09\RMSF=1.935e-05\ZeroPoint=0.0492573\Thermal=0.067463\D
 ipole=0.0003122,-0.0004564,-0.0000588\DipoleDeriv=0.9092568,0.0824586,
 -0.2045544,0.0854881,0.8983278,0.2192205,-0.1738303,0.1860577,1.283586
 9,1.3447321,-0.0203976,0.9049101,-0.0092025,2.5135666,0.01659,0.839554
 3,0.0006008,1.1929086,-0.7392947,0.3773897,-0.365788,0.4020695,-1.9130
 547,0.2823678,-0.362319,0.3178794,-0.6293786,-0.8197648,-0.4356059,-0.
 4822688,-0.3893204,-1.7267441,-0.3309487,-0.447061,-0.3900028,-0.71013
 38,2.5052248,0.0200467,0.0306624,0.0311875,1.2711772,-0.9201324,0.0636
 251,-0.8488955,1.2617189,-1.7660777,-0.3829314,0.301561,-0.4359748,-0.
 7765419,0.4706634,0.3529961,0.4221372,-0.7084068,-1.8577265,0.3800699,
 -0.3363064,0.3406035,-0.7042045,0.3903582,-0.3957117,0.4018684,-0.6944
 958,1.3429998,-0.0203361,0.9052711,-0.0091109,2.5136114,0.0166362,0.83
 98594,0.0005616,1.1946526,2.5055178,0.0199845,0.0304975,0.0309347,1.26
 93894,-0.9203162,0.0633164,-0.849107,1.2634455,-1.7663828,-0.3826576,0
 .3020607,-0.4353763,-0.7756182,0.4706994,0.3535964,0.4222254,-0.709316
 2,-1.8576885,0.3796815,-0.3365892,0.3405131,-0.7035037,0.3905195,-0.39
 59798,0.4020137,-0.6953584,-0.8189297,-0.4352113,-0.4824456,-0.3891052
 ,-1.727049,-0.3314565,-0.4470752,-0.3903113,-0.711003,-0.7386531,0.377
 1663,-0.3660476,0.4017291,-1.9129079,0.2827972,-0.3624951,0.3182882,-0
 .6301845,-0.1215085,0.0202055,0.0494512,0.0178077,-0.1131798,-0.018335
 ,0.0357123,0.0033745,-1.3539984,-0.1217048,0.0201372,0.0495858,0.01775
 69,-0.1132684,-0.0186635,0.035812,0.0033097,-1.354037\Polar=211.119810
 6,4.0061882,209.822557,13.7547294,-14.1854054,251.2230814\PG=C01 [X(Br
 2N4O8Pt1)]\NImag=0\\0.23945275,0.00000267,0.23716723,0.02046116,-0.023
 63969,0.32508079,-0.04527278,-0.00105922,0.01098789,0.58729270,-0.0002
 6444,-0.06597597,-0.00100829,-0.02548962,0.57544773,0.01115955,0.00001
 268,-0.05331364,0.37210145,-0.01958927,0.45187654,0.00322702,0.0020407
 3,-0.00978506,-0.26307574,0.17469952,-0.18027073,0.34430430,0.01914011
 ,-0.00183844,0.01572297,0.17856833,-0.28700838,0.14765600,-0.19381343,
 0.24752189,-0.00930540,0.00090652,0.00589265,-0.18097887,0.14441041,-0
 .19629972,0.26798287,-0.16211143,0.24235910,-0.00025756,-0.00147813,-0
 .01046051,-0.28896260,-0.14886663,-0.20264404,-0.07946027,0.00262662,-
 0.08037175,0.37193694,-0.01829616,-0.00036875,-0.01423577,-0.15364637,
 -0.22561254,-0.12884406,0.01848909,0.05312771,0.01608245,0.14966969,0.
 18609511,-0.01120421,-0.00079841,0.00468091,-0.20178411,-0.12369381,-0
 .21604305,-0.08056951,0.00262956,-0.04984053,0.28866525,0.12507779,0.2
 6445825,-0.06664628,0.00063249,0.00045979,0.00016744,-0.02146651,0.002
 08694,-0.00515817,0.00634443,-0.00330821,0.00091892,0.00638512,0.00079
 747,0.57425613,-0.00067006,-0.04615307,-0.01094698,-0.00930244,0.00057
 480,-0.00446878,0.00591967,0.00099901,0.00258833,0.00180635,-0.0006315
 0,0.00156142,-0.00592131,0.56090136,-0.00101076,-0.01127873,-0.0530012
 3,0.00475430,-0.00367645,0.00565290,-0.00581319,0.00103621,-0.00335498
 ,-0.00146311,0.00085745,-0.00180644,0.02206954,-0.37729184,0.48245489,
 -0.00128266,-0.01838366,0.01466461,-0.00048182,0.00639912,-0.00041958,
 0.00065251,-0.00229311,0.00085571,0.00005124,-0.00208628,-0.00034903,-
 0.24149591,-0.15937040,0.13599594,0.20334304,-0.00202438,0.00076991,0.
 01043871,0.00175273,0.00080213,0.00128663,-0.00199307,-0.00052492,-0.0
 0073801,-0.00024476,0.00007948,-0.00052016,-0.15511250,-0.27193986,0.1
 9660637,0.16157264,0.34716567,0.00080917,0.01054981,0.00459722,-0.0017
 4501,-0.00029539,-0.00185129,0.00226726,0.00018368,0.00100432,0.000603
 81,0.00018151,0.00092723,0.13031656,0.19524626,-0.21778737,-0.13740193
 ,-0.28382907,0.27308265,-0.00094049,0.01808776,-0.01654470,0.00085245,
 0.00620004,-0.00076460,-0.00128487,-0.00500688,0.00249755,-0.00032138,
 -0.00212795,-0.00017760,-0.26913617,0.16407441,-0.15611049,0.05413448,
 -0.00267839,0.00360209,0.22963972,0.00188378,0.00396416,0.01012202,0.0
 0629569,-0.00569763,0.00538648,-0.00902918,-0.00029313,-0.00266591,-0.
 00222972,0.00086518,-0.00217730,0.16019924,-0.25324359,0.19226208,0.01
 266097,-0.07340132,0.08210924,-0.17405019,0.32694700,-0.00099272,0.010
 36383,0.00408678,-0.00223408,0.00356178,-0.00280958,0.00413209,-0.0004
 5695,0.00157234,0.00064445,-0.00097261,0.00073791,-0.15251032,0.192914
 89,-0.22563807,-0.01055606,0.08139135,-0.05667261,0.16339852,-0.282954
 53,0.28009215,-0.04529416,-0.00106082,0.01099114,0.02010549,-0.0005025
 5,-0.00363608,-0.00266780,-0.00312635,0.00172063,-0.00184029,0.0035946
 6,0.00222939,-0.00132622,0.00940866,-0.00411951,-0.00226441,-0.0041921
 7,0.00090153,-0.00072038,-0.00088587,0.00129319,0.58656894,-0.00028396
 ,-0.06594171,-0.00101766,-0.00048919,0.00664256,-0.00038077,-0.0018807
 8,0.00847133,-0.00177284,0.00266512,0.00693040,0.00258141,0.02294708,-
 0.00168636,-0.00205839,-0.00712532,-0.00465886,0.00185534,-0.00696618,
 0.00130015,-0.00106840,-0.02545815,0.57543447,0.01116616,0.00001744,-0
 .05328724,-0.00363549,-0.00038596,0.02022395,0.00179345,-0.00218971,-0
 .00294726,0.00199797,0.00266412,-0.00256218,0.00309799,0.00403642,-0.0
 0308156,-0.00125597,-0.00540791,0.00077448,-0.00096179,-0.00027485,0.0
 0100997,0.37225461,-0.01959429,0.45263616,-0.06660047,0.00061876,0.000
 45769,-0.00132008,0.02294748,0.00309952,0.00126784,-0.00708672,0.00051
 106,-0.00526761,-0.00685284,-0.00223279,0.00665607,-0.00078858,-0.0004
 3712,0.00720543,0.00265180,-0.00213422,0.00809357,-0.00168822,0.002486
 53,0.00015940,-0.02146422,0.00208916,0.57420629,-0.00066945,-0.0461690
 6,-0.01094745,0.00940721,-0.00169248,0.00402564,-0.00109332,-0.0004942
 0,-0.00141535,-0.00391197,-0.00203613,-0.00093252,-0.00079554,0.020523
 63,0.00364846,0.00374437,-0.00199468,-0.00209281,-0.00287894,-0.002889
 23,-0.00186152,-0.00928979,0.00056449,-0.00446813,-0.00594593,0.560147
 50,-0.00101110,-0.01128332,-0.05297076,-0.00412921,-0.00205798,-0.0030
 8119,0.00046578,0.00050251,0.00119102,0.00525346,0.00040985,0.00057490
 ,-0.00043498,0.00364847,0.02029473,-0.00216796,-0.00179416,-0.00278014
 ,0.00297755,-0.00201115,-0.00258251,0.00475259,-0.00367513,0.00566045,
 0.02201245,-0.37739686,0.48321525,-0.00126970,-0.01836122,0.01468036,-
 0.00225297,-0.00713014,-0.00126283,0.00004286,0.00293032,0.00033467,0.
 00109059,0.00430997,0.00212873,0.00719905,0.00374207,-0.00217170,-0.00
 913571,-0.00417052,0.00349667,-0.01205569,0.00303589,-0.00376082,-0.00
 047947,0.00639958,-0.00042010,-0.24154389,-0.15921263,0.13619126,0.203
 37219,-0.00201712,0.00079774,0.01043670,-0.00420580,-0.00464985,-0.005
 39537,0.00100704,0.00086148,0.00165224,0.00772310,0.00128893,0.0003651
 1,0.00264587,-0.00199852,-0.00179421,-0.00416603,-0.00126306,0.0017167
 3,-0.00446737,0.00196336,-0.00126194,0.00174936,0.00080349,0.00128478,
 -0.15496911,-0.27146481,0.19663528,0.16144043,0.34650657,0.00080309,0.
 01055238,0.00457225,0.00090112,0.00186008,0.00078433,0.00038738,-0.001
 00516,-0.00004879,-0.00018874,-0.00169574,-0.00153964,-0.00213457,-0.0
 0209371,-0.00277725,0.00349978,0.00172013,-0.00070065,0.00389076,-0.00
 080091,0.00211050,-0.00174486,-0.00029834,-0.00185417,0.13051465,0.195
 27451,-0.21819116,-0.13759596,-0.28386838,0.27367578,-0.00092583,0.018
 07066,-0.01655547,-0.00072184,-0.00696765,-0.00096265,0.00018954,0.002
 73225,-0.00006519,0.00111866,0.00288345,0.00118748,0.00808801,-0.00287
 216,0.00298490,-0.01205346,-0.00447476,0.00388342,-0.01047938,0.003384
 74,-0.00381897,0.00085072,0.00620396,-0.00076740,-0.26909085,0.1639483
 9,-0.15625655,0.05414053,-0.00269653,0.00361710,0.22957659,0.00187699,
 0.00397708,0.01012296,-0.00088233,0.00130180,-0.00027068,-0.00031544,0
 .00018551,-0.00005350,0.00079762,-0.00000159,-0.00048423,-0.00168470,-
 0.00289290,-0.00201327,0.00303315,0.00196458,-0.00079808,0.00338519,-0
 .00042147,0.00144268,0.00628615,-0.00568976,0.00538914,0.16007357,-0.2
 5293877,0.19234651,0.01262626,-0.07323229,0.08211735,-0.17390429,0.326
 45520,-0.00098565,0.01036427,0.00406494,0.00129312,-0.00107110,0.00100
 743,0.00002491,0.00035761,-0.00039287,-0.00144470,-0.00000067,0.000110
 66,0.00248586,-0.00185990,-0.00257812,-0.00376480,-0.00126613,0.002109
 56,-0.00382073,0.00144322,-0.00074921,-0.00223270,0.00356271,-0.002813
 24,-0.15264937,0.19299396,-0.22602439,-0.01055445,0.08140538,-0.056839
 18,0.16353463,-0.28304596,0.28064411,-0.00022715,-0.00147125,-0.010457
 38,-0.00184435,0.00266161,0.00199935,0.00201672,-0.00480342,0.00101280
 ,-0.00145682,-0.00425018,-0.00197791,-0.00525688,-0.00392294,0.0052440
 2,0.00108446,0.00772063,-0.00018193,0.00111557,0.00080114,-0.00144601,
 -0.28847494,-0.14876972,-0.20265365,0.00092052,0.00180314,-0.00146109,
 0.00005016,-0.00024407,0.00060318,-0.00032170,-0.00222530,0.00064312,0
 .37126428,-0.01827773,-0.00035975,-0.01424817,0.00359170,0.00692505,0.
 00266988,0.00305945,-0.01208912,0.00282422,-0.00425410,-0.00872820,-0.
 00380771,-0.00685797,-0.00202925,0.00041380,0.00430943,0.00130018,-0.0
 0169144,0.00288344,-0.00000090,-0.00000189,-0.15353631,-0.22570354,-0.
 12902383,0.00638499,-0.00062927,0.00085697,-0.00208669,0.00007919,0.00
 018211,-0.00212865,0.00086275,-0.00097263,0.14960457,0.18615249,-0.011
 20550,-0.00079467,0.00466074,0.00222946,0.00258003,-0.00255868,0.00096
 779,-0.00450930,0.00191871,-0.00198019,-0.00380815,-0.00098035,-0.0022
 3560,-0.00093669,0.00057925,0.00212963,0.00037619,-0.00153660,0.001186
 90,-0.00048196,0.00010830,-0.20179422,-0.12387072,-0.21640370,0.000798
 28,0.00156156,-0.00180934,-0.00034892,-0.00051947,0.00092836,-0.000177
 10,-0.00217832,0.00073922,0.28870498,0.12527883,0.26500799,0.00324016,
 0.00203696,-0.00978965,-0.00267085,-0.00187746,0.00179498,-0.00051224,
 0.00359135,-0.00123246,0.00201769,0.00305627,0.00096562,0.00126947,-0.
 00109100,0.00046217,0.00004225,0.00100377,0.00038990,0.00018883,-0.000
 31522,0.00002512,-0.26280370,0.17456656,-0.18042225,-0.00515062,0.0059
 0976,-0.00581351,0.00065066,-0.00198853,0.00226697,-0.00127956,-0.0090
 1605,0.00413192,-0.07930666,0.01843881,-0.08060444,0.34385446,0.019123
 22,-0.00182581,0.01573853,-0.00312072,0.00847015,-0.00219452,0.0035913
 5,-0.01106544,0.00311624,-0.00480984,-0.01208603,-0.00450456,-0.007087
 99,-0.00049514,0.00050292,0.00293046,0.00086423,-0.00100534,0.00273248
 ,0.00018595,0.00035677,0.17843846,-0.28693962,0.14784934,0.00634633,0.
 00099834,0.00103594,-0.00229420,-0.00052508,0.00018476,-0.00500093,-0.
 00029394,-0.00046057,0.00259146,0.05313989,0.00260583,-0.19363486,0.24
 742804,-0.00931263,0.00090383,0.00586739,0.00172011,-0.00177431,-0.002
 94403,-0.00123359,0.00311945,-0.00025369,0.00101726,0.00282948,0.00191
 984,0.00051303,-0.00141647,0.00118964,0.00033466,0.00165232,-0.0000470
 7,-0.00006583,-0.00005296,-0.00039313,-0.18113201,0.14459955,-0.196723
 80,-0.00331091,0.00258923,-0.00336100,0.00085606,-0.00073774,0.0010064
 1,0.00250572,-0.00266877,0.00157570,-0.08040713,0.01607426,-0.05000619
 ,0.26816960,-0.16228904,0.24296702,-0.00860212,0.00016271,0.00044501,-
 0.00083035,0.00034946,-0.00075226,-0.00006691,0.00009844,-0.00009133,0
 .00031678,-0.00001883,0.00029972,-0.00457088,0.00204375,0.00150561,0.0
 0069456,-0.00043549,-0.00003383,0.00022090,-0.00080921,0.00345240,-0.0
 0098435,-0.00069271,-0.00153087,-0.00496744,-0.00305902,-0.00187924,-0
 .00050233,0.00062484,-0.00478767,0.00069255,0.00074810,-0.00011661,0.0
 0012131,-0.00111191,0.00202990,0.00052515,0.00009861,0.00043847,0.0155
 2307,0.00023913,-0.00902252,0.00173248,0.00189293,-0.00419170,-0.00191
 763,-0.00139747,0.00132659,-0.00282537,-0.00038247,0.00073327,0.000230
 48,0.00043314,-0.00094404,0.00103288,0.00000440,0.00044942,-0.00037014
 ,0.00073289,0.00015744,-0.00096830,-0.00331599,-0.00533502,0.00201289,
 -0.00066168,-0.00098242,0.00175131,-0.00123387,0.00038400,-0.00175888,
 0.00008071,0.00056318,-0.00048517,0.00088860,0.00034851,0.00446877,0.0
 0071843,0.00081849,0.00000501,0.00205498,0.01324395,0.00031599,0.00206
 234,-0.07546651,-0.00006732,-0.00115378,0.00014982,-0.00061697,-0.0010
 4709,-0.00092585,0.00021758,-0.00017314,0.00014784,0.00125634,-0.00024
 168,0.00035774,0.00014729,-0.00015473,0.00013645,0.00094330,0.00027486
 ,-0.00096966,0.00058479,0.00229162,-0.00078680,-0.00245897,-0.00073646
 ,-0.00049779,-0.00172087,0.00023519,-0.00126263,-0.00005073,-0.0001791
 5,0.00009631,0.00016109,0.00161890,-0.00079492,0.00026759,0.00011177,0
 .00012532,0.00043323,-0.00259000,0.08779884,-0.00860071,0.00016154,0.0
 0044512,-0.00098471,-0.00069224,-0.00152901,0.00052521,0.00009805,0.00
 043791,0.00011570,-0.00110963,0.00202150,-0.00496460,-0.00305604,-0.00
 189060,-0.00049399,0.00062446,-0.00477351,0.00069285,0.00074617,-0.000
 11332,-0.00082885,0.00034791,-0.00075181,-0.00456814,0.00204373,0.0015
 0054,0.00069373,-0.00043609,-0.00003222,0.00021603,-0.00079892,0.00345
 545,0.00031547,-0.00001902,0.00029904,-0.00006503,0.00009616,-0.000092
 81,0.00243007,-0.00005376,0.00058764,0.01551697,0.00023739,-0.00902104
 ,0.00172964,-0.00331291,-0.00533569,0.00202377,0.00071582,0.00082011,0
 .00000198,0.00088910,0.00034465,0.00447294,-0.00066085,-0.00098456,0.0
 0175272,-0.00122976,0.00038709,-0.00176028,0.00007969,0.00056403,-0.00
 048518,0.00189071,-0.00419203,-0.00190947,0.00043435,-0.00094291,0.001
 03176,0.00000475,0.00044884,-0.00037020,0.00074081,0.00016063,-0.00096
 503,-0.00038428,0.00073197,0.00022807,-0.00139877,0.00132597,-0.002833
 83,-0.00005373,0.00245086,-0.00031864,0.00204768,0.01324209,0.00031287
 ,0.00206172,-0.07546432,0.00058663,0.00229404,-0.00079379,0.00026750,0
 .00011163,0.00012556,0.00015326,0.00162748,-0.00078534,-0.00245985,-0.
 00073974,-0.00050413,-0.00171229,0.00023847,-0.00125619,-0.00005093,-0
 .00017835,0.00009681,-0.00006850,-0.00115409,0.00015494,0.00125404,-0.
 00024227,0.00036194,0.00014790,-0.00015429,0.00013583,0.00094084,0.000
 27334,-0.00095093,0.00021656,-0.00017330,0.00014721,-0.00061156,-0.001
 04807,-0.00092242,0.00058746,-0.00031832,-0.00810817,0.00043608,-0.002
 59825,0.08776300\\0.00003662,-0.00002174,0.00001065,-0.00003051,-0.000
 00143,-0.00001300,-0.00001553,-0.00000996,0.00002861,-0.00001739,0.000
 00487,0.00000583,-0.00005012,-0.00002007,0.00001239,0.00001925,-0.0000
 2275,0.00001027,0.00000692,-0.00002136,0.00002058,-0.00000360,0.000024
 77,-0.00001657,0.00001301,0.00003495,-0.00004012,-0.00001278,0.0000156
 7,0.00000604,-0.00000055,0.00001536,-0.00001237,0.00002073,-0.00000175
 ,0.00000139,0.00003553,0.00000456,-0.00001676,-0.00001111,0.00001271,0
 .00000023,0.00000951,-0.00001384,0.00000285\\\@


 BOOKS ARE LIGHTHOUSES ERECTED IN THE GREAT SEA OF TIME.
     -- E.P.WHIPPLE
 Job cpu time:       0 days  0 hours 36 minutes 15.0 seconds.
 File lengths (MBytes):  RWF=    223 Int=      0 D2E=      0 Chk=     10 Scr=      1
 Normal termination of Gaussian 09 at Wed Aug 18 14:17:30 2021.
