 Entering Gaussian System, Link 0=g09
 Input=estrutura64_D2O.com
 Output=estrutura64_D2O.log
 Initial command:
 /home/scr/programs/g09/l1.exe "/home/scr/diego/Gau-15733.inp" -scrdir="/home/scr/diego/"
 Entering Link 1 = /home/scr/programs/g09/l1.exe PID=     15735.
  
 Copyright (c) 1988,1990,1992,1993,1995,1998,2003,2009,2013,
            Gaussian, Inc.  All Rights Reserved.
  
 This is part of the Gaussian(R) 09 program.  It is based on
 the Gaussian(R) 03 system (copyright 2003, Gaussian, Inc.),
 the Gaussian(R) 98 system (copyright 1998, Gaussian, Inc.),
 the Gaussian(R) 94 system (copyright 1995, Gaussian, Inc.),
 the Gaussian 92(TM) system (copyright 1992, Gaussian, Inc.),
 the Gaussian 90(TM) system (copyright 1990, Gaussian, Inc.),
 the Gaussian 88(TM) system (copyright 1988, Gaussian, Inc.),
 the Gaussian 86(TM) system (copyright 1986, Carnegie Mellon
 University), and the Gaussian 82(TM) system (copyright 1983,
 Carnegie Mellon University). Gaussian is a federally registered
 trademark of Gaussian, Inc.
  
 This software contains proprietary and confidential information,
 including trade secrets, belonging to Gaussian, Inc.
  
 This software is provided under written license and may be
 used, copied, transmitted, or stored only in accord with that
 written license.
  
 The following legend is applicable only to US Government
 contracts under FAR:
  
                    RESTRICTED RIGHTS LEGEND
  
 Use, reproduction and disclosure by the US Government is
 subject to restrictions as set forth in subparagraphs (a)
 and (c) of the Commercial Computer Software - Restricted
 Rights clause in FAR 52.227-19.
  
 Gaussian, Inc.
 340 Quinnipiac St., Bldg. 40, Wallingford CT 06492
  
  
 ---------------------------------------------------------------
 Warning -- This program may not be used in any manner that
 competes with the business of Gaussian, Inc. or will provide
 assistance to any competitor of Gaussian, Inc.  The licensee
 of this program is prohibited from giving any competitor of
 Gaussian, Inc. access to this program.  By using this program,
 the user acknowledges that Gaussian, Inc. is engaged in the
 business of creating and licensing software in the field of
 computational chemistry and represents and warrants to the
 licensee that it is not a competitor of Gaussian, Inc. and that
 it will not use this program in any manner prohibited above.
 ---------------------------------------------------------------
  

 Cite this work as:
 Gaussian 09, Revision D.01,
 M. J. Frisch, G. W. Trucks, H. B. Schlegel, G. E. Scuseria, 
 M. A. Robb, J. R. Cheeseman, G. Scalmani, V. Barone, B. Mennucci, 
 G. A. Petersson, H. Nakatsuji, M. Caricato, X. Li, H. P. Hratchian, 
 A. F. Izmaylov, J. Bloino, G. Zheng, J. L. Sonnenberg, M. Hada, 
 M. Ehara, K. Toyota, R. Fukuda, J. Hasegawa, M. Ishida, T. Nakajima, 
 Y. Honda, O. Kitao, H. Nakai, T. Vreven, J. A. Montgomery, Jr., 
 J. E. Peralta, F. Ogliaro, M. Bearpark, J. J. Heyd, E. Brothers, 
 K. N. Kudin, V. N. Staroverov, T. Keith, R. Kobayashi, J. Normand, 
 K. Raghavachari, A. Rendell, J. C. Burant, S. S. Iyengar, J. Tomasi, 
 M. Cossi, N. Rega, J. M. Millam, M. Klene, J. E. Knox, J. B. Cross, 
 V. Bakken, C. Adamo, J. Jaramillo, R. Gomperts, R. E. Stratmann, 
 O. Yazyev, A. J. Austin, R. Cammi, C. Pomelli, J. W. Ochterski, 
 R. L. Martin, K. Morokuma, V. G. Zakrzewski, G. A. Voth, 
 P. Salvador, J. J. Dannenberg, S. Dapprich, A. D. Daniels, 
 O. Farkas, J. B. Foresman, J. V. Ortiz, J. Cioslowski, 
 and D. J. Fox, Gaussian, Inc., Wallingford CT, 2013.
 
 ******************************************
 Gaussian 09:  EM64L-G09RevD.01 24-Apr-2013
                18-Aug-2021 
 ******************************************
 %mem=15gb
 %nproc=8
 Will use up to    8 processors via shared memory.
 ------------------------------------------------------------
 #b3lyp/gen pseudo=read opt freq=noraman scrf=(solvent=water)
 ------------------------------------------------------------
 1/14=-1,18=20,19=15,26=3,38=1/1,3;
 2/9=110,12=2,17=6,18=5,40=1/2;
 3/5=7,11=2,16=1,17=8,25=1,30=1,70=2201,71=1,72=1,74=-5/1,2,3;
 4//1;
 5/5=2,38=5,53=1/2;
 6/7=2,8=2,9=2,10=2,28=1/1;
 7//1,2,3,16;
 1/14=-1,18=20,19=15,26=3/3(2);
 2/9=110/2;
 99//99;
 2/9=110/2;
 3/5=7,6=1,11=2,16=1,17=8,25=1,30=1,70=2205,71=1,72=1,74=-5,82=7/1,2,3;
 4/5=5,16=3,69=1/1;
 5/5=2,38=5,53=1/2;
 7//1,2,3,16;
 1/14=-1,18=20,19=15,26=3/3(-5);
 2/9=110/2;
 6/7=2,8=2,9=2,10=2,19=2,28=1/1;
 99/9=1/99;
 ------------
 Estrutura 64
 ------------
 Symbolic Z-matrix:
 Charge = -2 Multiplicity = 1
 Pt                   -0.31955   0.33835   0. 
 N                     1.67045   0.33835   0. 
 O                     2.12378   1.35457  -0.7819 
 O                     2.12378   0.50738   1.27103 
 N                    -0.31955   2.32835   0. 
 N                    -2.30955   0.33835   0. 
 O                    -2.76288  -0.04279   1.22426 
 O                    -2.76288   1.58916  -0.28206 
 O                     0.38494   2.78168   1.07135 
 O                     0.25602   2.78168  -1.14578 
 Cl                   -0.31955   0.33835   2.28 
 N                    -0.31955   0.33835  -1.99 
 O                     0.52851  -0.62336  -2.44333 
 O                    -1.57644   0.08476  -2.44333 
 Br                   -0.31955  -2.09165   0. 
 

 GradGradGradGradGradGradGradGradGradGradGradGradGradGradGradGradGradGrad
 Berny optimization.
 Initialization pass.
                           ----------------------------
                           !    Initial Parameters    !
                           ! (Angstroms and Degrees)  !
 --------------------------                            --------------------------
 ! Name  Definition              Value          Derivative Info.                !
 --------------------------------------------------------------------------------
 ! R1    R(1,2)                  1.99           estimate D2E/DX2                !
 ! R2    R(1,5)                  1.99           estimate D2E/DX2                !
 ! R3    R(1,6)                  1.99           estimate D2E/DX2                !
 ! R4    R(1,11)                 2.28           estimate D2E/DX2                !
 ! R5    R(1,12)                 1.99           estimate D2E/DX2                !
 ! R6    R(1,15)                 2.43           estimate D2E/DX2                !
 ! R7    R(2,3)                  1.36           estimate D2E/DX2                !
 ! R8    R(2,4)                  1.36           estimate D2E/DX2                !
 ! R9    R(5,9)                  1.36           estimate D2E/DX2                !
 ! R10   R(5,10)                 1.36           estimate D2E/DX2                !
 ! R11   R(6,7)                  1.36           estimate D2E/DX2                !
 ! R12   R(6,8)                  1.36           estimate D2E/DX2                !
 ! R13   R(12,13)                1.36           estimate D2E/DX2                !
 ! R14   R(12,14)                1.36           estimate D2E/DX2                !
 ! A1    A(2,1,5)               90.0            estimate D2E/DX2                !
 ! A2    A(2,1,11)              90.0            estimate D2E/DX2                !
 ! A3    A(2,1,12)              90.0            estimate D2E/DX2                !
 ! A4    A(2,1,15)              90.0            estimate D2E/DX2                !
 ! A5    A(5,1,6)               90.0            estimate D2E/DX2                !
 ! A6    A(5,1,11)              90.0            estimate D2E/DX2                !
 ! A7    A(5,1,12)              90.0            estimate D2E/DX2                !
 ! A8    A(6,1,11)              90.0            estimate D2E/DX2                !
 ! A9    A(6,1,12)              90.0            estimate D2E/DX2                !
 ! A10   A(6,1,15)              90.0            estimate D2E/DX2                !
 ! A11   A(11,1,15)             90.0            estimate D2E/DX2                !
 ! A12   A(12,1,15)             90.0            estimate D2E/DX2                !
 ! A13   A(1,2,3)              109.4712         estimate D2E/DX2                !
 ! A14   A(1,2,4)              109.4712         estimate D2E/DX2                !
 ! A15   A(3,2,4)              109.4713         estimate D2E/DX2                !
 ! A16   A(1,5,9)              109.4712         estimate D2E/DX2                !
 ! A17   A(1,5,10)             109.4712         estimate D2E/DX2                !
 ! A18   A(9,5,10)             109.4713         estimate D2E/DX2                !
 ! A19   A(1,6,7)              109.4712         estimate D2E/DX2                !
 ! A20   A(1,6,8)              109.4712         estimate D2E/DX2                !
 ! A21   A(7,6,8)              109.4713         estimate D2E/DX2                !
 ! A22   A(1,12,13)            109.4712         estimate D2E/DX2                !
 ! A23   A(1,12,14)            109.4712         estimate D2E/DX2                !
 ! A24   A(13,12,14)           109.4713         estimate D2E/DX2                !
 ! A25   L(2,1,6,5,-1)         180.0            estimate D2E/DX2                !
 ! A26   L(5,1,15,2,-1)        180.0            estimate D2E/DX2                !
 ! A27   L(11,1,12,2,-1)       180.0            estimate D2E/DX2                !
 ! A28   L(2,1,6,5,-2)         180.0            estimate D2E/DX2                !
 ! A29   L(5,1,15,2,-2)        180.0            estimate D2E/DX2                !
 ! A30   L(11,1,12,2,-2)       180.0            estimate D2E/DX2                !
 ! D1    D(5,1,2,3)            -37.5752         estimate D2E/DX2                !
 ! D2    D(5,1,2,4)             82.4248         estimate D2E/DX2                !
 ! D3    D(11,1,2,3)          -127.5752         estimate D2E/DX2                !
 ! D4    D(11,1,2,4)            -7.5752         estimate D2E/DX2                !
 ! D5    D(12,1,2,3)            52.4248         estimate D2E/DX2                !
 ! D6    D(12,1,2,4)           172.4248         estimate D2E/DX2                !
 ! D7    D(15,1,2,3)           142.4248         estimate D2E/DX2                !
 ! D8    D(15,1,2,4)           -97.5752         estimate D2E/DX2                !
 ! D9    D(3,2,6,7)           -144.8676         estimate D2E/DX2                !
 ! D10   D(3,2,6,8)            -24.8676         estimate D2E/DX2                !
 ! D11   D(4,2,6,7)            -24.8676         estimate D2E/DX2                !
 ! D12   D(4,2,6,8)             95.1324         estimate D2E/DX2                !
 ! D13   D(2,1,5,9)            -56.6723         estimate D2E/DX2                !
 ! D14   D(2,1,5,10)            63.3277         estimate D2E/DX2                !
 ! D15   D(6,1,5,9)            123.3277         estimate D2E/DX2                !
 ! D16   D(6,1,5,10)          -116.6723         estimate D2E/DX2                !
 ! D17   D(11,1,5,9)            33.3277         estimate D2E/DX2                !
 ! D18   D(11,1,5,10)          153.3277         estimate D2E/DX2                !
 ! D19   D(12,1,5,9)          -146.6723         estimate D2E/DX2                !
 ! D20   D(12,1,5,10)          -26.6723         estimate D2E/DX2                !
 ! D21   D(5,1,6,7)           -107.2924         estimate D2E/DX2                !
 ! D22   D(5,1,6,8)             12.7076         estimate D2E/DX2                !
 ! D23   D(11,1,6,7)           -17.2924         estimate D2E/DX2                !
 ! D24   D(11,1,6,8)           102.7076         estimate D2E/DX2                !
 ! D25   D(12,1,6,7)           162.7076         estimate D2E/DX2                !
 ! D26   D(12,1,6,8)           -77.2924         estimate D2E/DX2                !
 ! D27   D(15,1,6,7)            72.7076         estimate D2E/DX2                !
 ! D28   D(15,1,6,8)          -167.2924         estimate D2E/DX2                !
 ! D29   D(2,1,12,13)           48.5934         estimate D2E/DX2                !
 ! D30   D(2,1,12,14)          168.5934         estimate D2E/DX2                !
 ! D31   D(5,1,12,13)          138.5934         estimate D2E/DX2                !
 ! D32   D(5,1,12,14)         -101.4066         estimate D2E/DX2                !
 ! D33   D(6,1,12,13)         -131.4066         estimate D2E/DX2                !
 ! D34   D(6,1,12,14)          -11.4066         estimate D2E/DX2                !
 ! D35   D(15,1,12,13)         -41.4066         estimate D2E/DX2                !
 ! D36   D(15,1,12,14)          78.5934         estimate D2E/DX2                !
 --------------------------------------------------------------------------------
 Trust Radius=3.00D-01 FncErr=1.00D-07 GrdErr=1.00D-06
 Number of steps in this run=     90 maximum allowed number of steps=    100.
 GradGradGradGradGradGradGradGradGradGradGradGradGradGradGradGradGradGrad

                          Input orientation:                          
 ---------------------------------------------------------------------
 Center     Atomic      Atomic             Coordinates (Angstroms)
 Number     Number       Type             X           Y           Z
 ---------------------------------------------------------------------
      1         78           0       -0.319549    0.338346    0.000000
      2          7           0        1.670451    0.338346    0.000000
      3          8           0        2.123784    1.354574   -0.781901
      4          8           0        2.123784    0.507377    1.271030
      5          7           0       -0.319549    2.328346    0.000000
      6          7           0       -2.309549    0.338346    0.000000
      7          8           0       -2.762882   -0.042792    1.224264
      8          8           0       -2.762882    1.589159   -0.282057
      9          8           0        0.384937    2.781679    1.071349
     10          8           0        0.256023    2.781679   -1.145778
     11         17           0       -0.319549    0.338346    2.280000
     12          7           0       -0.319549    0.338346   -1.990000
     13          8           0        0.528510   -0.623364   -2.443333
     14          8           0       -1.576443    0.084760   -2.443333
     15         35           0       -0.319549   -2.091654    0.000000
 ---------------------------------------------------------------------
                    Distance matrix (angstroms):
                    1          2          3          4          5
     1  Pt   0.000000
     2  N    1.990000   0.000000
     3  O    2.759341   1.360000   0.000000
     4  O    2.759341   1.360000   2.220871   0.000000
     5  N    1.990000   2.814285   2.743989   3.301715   0.000000
     6  N    1.990000   3.980000   4.615033   4.615033   2.814285
     7  O    2.759341   4.615033   5.464141   4.917761   3.618148
     8  O    2.759341   4.615033   4.917761   5.240404   2.568235
     9  O    2.759341   2.961454   2.914576   2.869827   1.360000
    10  O    2.759341   3.046849   2.378564   3.808141   1.360000
    11  Cl   2.280000   3.026301   4.046954   2.648862   3.026301
    12  N    1.990000   2.814285   2.908969   4.078329   2.814285
    13  O    2.759341   2.863353   3.036033   4.197615   3.924496
    14  O    2.759341   4.071425   4.250231   5.259922   3.547300
    15  Br   2.430000   3.140860   4.296247   3.786867   4.420000
                    6          7          8          9         10
     6  N    0.000000
     7  O    1.360000   0.000000
     8  O    1.360000   2.220871   0.000000
     9  O    3.791823   4.231995   3.628027   0.000000
    10  O    3.723552   4.765346   3.358854   2.220871   0.000000
    11  Cl   3.026301   2.688814   3.754803   2.815495   4.247012
    12  N    2.814285   4.055445   3.232874   3.979703   2.648371
    13  O    3.866438   4.962015   4.516595   4.895704   3.654068
    14  O    2.563518   3.856835   2.888246   4.844933   3.509267
    15  Br   3.140860   3.415631   4.426942   5.039193   5.039193
                   11         12         13         14         15
    11  Cl   0.000000
    12  N    4.270000   0.000000
    13  O    4.894279   1.360000   0.000000
    14  O    4.894279   1.360000   2.220871   0.000000
    15  Br   3.332161   3.140860   2.974047   3.505202   0.000000
 Stoichiometry    BrClN4O8Pt(2-)
 Framework group  C1[X(BrClN4O8Pt)]
 Deg. of freedom    39
 Full point group                 C1      NOp   1
 Largest Abelian subgroup         C1      NOp   1
 Largest concise Abelian subgroup C1      NOp   1
                         Standard orientation:                         
 ---------------------------------------------------------------------
 Center     Atomic      Atomic             Coordinates (Angstroms)
 Number     Number       Type             X           Y           Z
 ---------------------------------------------------------------------
      1         78           0       -0.101524    0.054291    0.031052
      2          7           0       -0.660660   -1.545087   -1.012719
      3          8           0       -1.681873   -2.171931   -0.369452
      4          8           0       -1.073584   -1.157788   -2.249284
      5          7           0       -2.001438    0.409394    0.504685
      6          7           0        0.457611    1.653669    1.074823
      7          8           0        0.829268    2.644942    0.221097
      8          8           0       -0.581649    2.081110    1.840873
      9          8           0       -2.736853    0.532225   -0.632714
     10          8           0       -2.484035   -0.622689    1.247319
     11         17           0       -0.324263    1.348504   -1.832761
     12          7           0        0.092884   -1.075307    1.657802
     13          8           0        0.817063   -2.185838    1.354677
     14          8           0        0.732430   -0.367711    2.627280
     15         35           0        2.218471   -0.379328   -0.547304
 ---------------------------------------------------------------------
 Rotational constants (GHZ):      0.4788342      0.3887898      0.3856828
 General basis read from cards:  (5D, 7F)
 ======================================================================================================
                                       Pseudopotential Parameters
 ======================================================================================================
  Center     Atomic      Valence      Angular      Power
  Number     Number     Electrons     Momentum     of R      Exponent        Coefficient   SO-Coeffient
 ======================================================================================================
    1         78           18
                                      G and up 
                                                     1      728.9394056       -0.16192680    0.00000000
                                                     2      320.6567800    -1320.28738520    0.00000000
                                                     2       52.8680174     -298.31781350    0.00000000
                                                     2       12.0280128      -87.58370650    0.00000000
                                                     2        3.5238913       -8.14932740    0.00000000
                                      S - G
                                                     0      409.4437358        2.73342180    0.00000000
                                                     1      274.5419231       59.70243290    0.00000000
                                                     2      127.5658570      891.45895500    0.00000000
                                                     2       32.9036631      368.44676560    0.00000000
                                                     2        5.0593880      238.02630900    0.00000000
                                                     2        4.1506556     -107.05564540    0.00000000
                                      P - G
                                                     0      466.1728892        1.88785680    0.00000000
                                                     1      120.7888259       76.01386290    0.00000000
                                                     2       36.4118791      343.55111160    0.00000000
                                                     2        5.6985408      119.49117860    0.00000000
                                      D - G
                                                     0      249.5650763        2.93436780    0.00000000
                                                     1      126.6678585       59.33065710    0.00000000
                                                     2       63.1430586      452.44451940    0.00000000
                                                     2       17.9059470      210.47694790    0.00000000
                                                     2        4.2239373       58.62541120    0.00000000
                                      F - G
                                                     0      121.8158799        3.95342530    0.00000000
                                                     1       60.8757030       53.85551820    0.00000000
                                                     2       31.4767147      247.43051330    0.00000000
                                                     2        9.8811751      127.81879760    0.00000000
                                                     2        2.7319874       15.37720460    0.00000000
    2          7
                                   No pseudopotential on this center.
    3          8
                                   No pseudopotential on this center.
    4          8
                                   No pseudopotential on this center.
    5          7
                                   No pseudopotential on this center.
    6          7
                                   No pseudopotential on this center.
    7          8
                                   No pseudopotential on this center.
    8          8
                                   No pseudopotential on this center.
    9          8
                                   No pseudopotential on this center.
   10          8
                                   No pseudopotential on this center.
   11         17
                                   No pseudopotential on this center.
   12          7
                                   No pseudopotential on this center.
   13          8
                                   No pseudopotential on this center.
   14          8
                                   No pseudopotential on this center.
   15         35
                                   No pseudopotential on this center.
 ======================================================================================================
 There are   258 symmetry adapted cartesian basis functions of A   symmetry.
 There are   240 symmetry adapted basis functions of A   symmetry.
   240 basis functions,   460 primitive gaussians,   258 cartesian basis functions
    82 alpha electrons       82 beta electrons
       nuclear repulsion energy      2054.8772577310 Hartrees.
 NAtoms=   15 NActive=   15 NUniq=   15 SFac= 1.00D+00 NAtFMM=   60 NAOKFM=F Big=F
 Integral buffers will be    131072 words long.
 Raffenetti 2 integral format.
 Two-electron integral symmetry is turned on.
 ------------------------------------------------------------------------------
 Polarizable Continuum Model (PCM)
 =================================
 Model                : PCM (using non-symmetric T matrix).
 Atomic radii         : UFF (Universal Force Field).
 Polarization charges : Total charges.
 Charge compensation  : None.
 Solution method      : On-the-fly selection.
 Cavity type          : Scaled VdW (van der Waals Surface) (Alpha=1.100).
 Cavity algorithm     : GePol (No added spheres)
                        Default sphere list used, NSphG=   15.
                        Lebedev-Laikov grids with approx.  5.0 points / Ang**2.
                        Smoothing algorithm: Karplus/York (Gamma=1.0000).
                        Polarization charges: spherical gaussians, with
                                              point-specific exponents (IZeta= 3).
                        Self-potential: point-specific (ISelfS= 7).
                        Self-field    : sphere-specific E.n sum rule (ISelfD= 2).
 1st derivatives      : Analytical E(r).r(x)/FMM algorithm (CHGder, D1EAlg=3).
                        Cavity 1st derivative terms included.
 Solvent              : Water, Eps=  78.355300 Eps(inf)=   1.777849
 ------------------------------------------------------------------------------
 Spheres list:
 ISph  on   Nord     Re0    Alpha      Xe            Ye            Ze
    1  Pt      1    1.3770  1.100     -0.101524      0.054291      0.031052
    2   N      2    1.8300  1.100     -0.660660     -1.545087     -1.012719
    3   O      3    1.7500  1.100     -1.681873     -2.171931     -0.369452
    4   O      4    1.7500  1.100     -1.073584     -1.157788     -2.249284
    5   N      5    1.8300  1.100     -2.001438      0.409394      0.504685
    6   N      6    1.8300  1.100      0.457611      1.653669      1.074823
    7   O      7    1.7500  1.100      0.829268      2.644942      0.221097
    8   O      8    1.7500  1.100     -0.581649      2.081110      1.840873
    9   O      9    1.7500  1.100     -2.736853      0.532225     -0.632714
   10   O     10    1.7500  1.100     -2.484035     -0.622689      1.247319
   11  Cl     11    1.9735  1.100     -0.324263      1.348504     -1.832761
   12   N     12    1.8300  1.100      0.092884     -1.075307      1.657802
   13   O     13    1.7500  1.100      0.817063     -2.185838      1.354677
   14   O     14    1.7500  1.100      0.732430     -0.367711      2.627280
   15  Br     15    2.0945  1.100      2.218471     -0.379328     -0.547304
 ------------------------------------------------------------------------------
 One-electron integrals computed using PRISM.
   1 Symmetry operations used in ECPInt.
 ECPInt:  NShTT=    5050 NPrTT=   21966 LenC2=    4766 LenP2D=   14627.
 LDataN:  DoStor=T MaxTD1= 6 Len=  172
 NBasis=   240 RedAO= T EigKep=  2.81D-03  NBF=   240
 NBsUse=   240 1.00D-06 EigRej= -1.00D+00 NBFU=   240
 Defaulting to unpruned grid for atomic number  78.
 ExpMin= 2.90D-02 ExpMax= 1.13D+05 ExpMxC= 1.70D+04 IAcc=3 IRadAn=         5 AccDes= 0.00D+00
 Harris functional with IExCor=  402 and IRadAn=       5 diagonalized for initial guess.
 HarFok:  IExCor=  402 AccDes= 0.00D+00 IRadAn=         5 IDoV= 1 UseB2=F ITyADJ=14
 ICtDFT=  3500011 ScaDFX=  1.000000  1.000000  1.000000  1.000000
 Defaulting to unpruned grid for atomic number  78.
 Defaulting to unpruned grid for atomic number  78.
 Defaulting to unpruned grid for atomic number  78.
 Defaulting to unpruned grid for atomic number  78.
 Defaulting to unpruned grid for atomic number  78.
 Defaulting to unpruned grid for atomic number  78.
 Defaulting to unpruned grid for atomic number  78.
 Defaulting to unpruned grid for atomic number  78.
 FoFCou: FMM=F IPFlag=           0 FMFlag=      100000 FMFlg1=           0
         NFxFlg=           0 DoJE=T BraDBF=F KetDBF=T FulRan=T
         wScrn=  0.000000 ICntrl=     500 IOpCl=  0 I1Cent=   200000004 NGrid=           0
         NMat0=    1 NMatS0=      1 NMatT0=    0 NMatD0=    1 NMtDS0=    0 NMtDT0=    0
 Petite list used in FoFCou.
 Keep R1 ints in memory in canonical form, NReq=427106744.
 Requested convergence on RMS density matrix=1.00D-08 within 128 cycles.
 Requested convergence on MAX density matrix=1.00D-06.
 Requested convergence on             energy=1.00D-06.
 No special actions if energy rises.
 Defaulting to unpruned grid for atomic number  78.
 Defaulting to unpruned grid for atomic number  78.
 Defaulting to unpruned grid for atomic number  78.
 Defaulting to unpruned grid for atomic number  78.
 Defaulting to unpruned grid for atomic number  78.
 Defaulting to unpruned grid for atomic number  78.
 Defaulting to unpruned grid for atomic number  78.
 Defaulting to unpruned grid for atomic number  78.
 Inv3:  Mode=1 IEnd=     8906187.
 Iteration    1 A*A^-1 deviation from unit magnitude is 6.55D-15 for     88.
 Iteration    1 A*A^-1 deviation from orthogonality  is 4.25D-15 for   1160    639.
 Iteration    1 A^-1*A deviation from unit magnitude is 7.55D-15 for    853.
 Iteration    1 A^-1*A deviation from orthogonality  is 1.18D-12 for    862    833.
 EnCoef did   100 forward-backward iterations
 EnCoef did   100 forward-backward iterations
 EnCoef did   100 forward-backward iterations
 EnCoef did   100 forward-backward iterations
 EnCoef did     5 forward-backward iterations
 EnCoef did     2 forward-backward iterations
 Error on total polarization charges =  0.00901
 SCF Done:  E(RB3LYP) =  -3972.96652564     A.U. after   29 cycles
            NFock= 29  Conv=0.26D-08     -V/T= 2.0235

 **********************************************************************

            Population analysis using the SCF density.

 **********************************************************************

 Orbital symmetries:
       Occupied  (A) (A) (A) (A) (A) (A) (A) (A) (A) (A) (A) (A)
                 (A) (A) (A) (A) (A) (A) (A) (A) (A) (A) (A) (A)
                 (A) (A) (A) (A) (A) (A) (A) (A) (A) (A) (A) (A)
                 (A) (A) (A) (A) (A) (A) (A) (A) (A) (A) (A) (A)
                 (A) (A) (A) (A) (A) (A) (A) (A) (A) (A) (A) (A)
                 (A) (A) (A) (A) (A) (A) (A) (A) (A) (A) (A) (A)
                 (A) (A) (A) (A) (A) (A) (A) (A) (A) (A)
       Virtual   (A) (A) (A) (A) (A) (A) (A) (A) (A) (A) (A) (A)
                 (A) (A) (A) (A) (A) (A) (A) (A) (A) (A) (A) (A)
                 (A) (A) (A) (A) (A) (A) (A) (A) (A) (A) (A) (A)
                 (A) (A) (A) (A) (A) (A) (A) (A) (A) (A) (A) (A)
                 (A) (A) (A) (A) (A) (A) (A) (A) (A) (A) (A) (A)
                 (A) (A) (A) (A) (A) (A) (A) (A) (A) (A) (A) (A)
                 (A) (A) (A) (A) (A) (A) (A) (A) (A) (A) (A) (A)
                 (A) (A) (A) (A) (A) (A) (A) (A) (A) (A) (A) (A)
                 (A) (A) (A) (A) (A) (A) (A) (A) (A) (A) (A) (A)
                 (A) (A) (A) (A) (A) (A) (A) (A) (A) (A) (A) (A)
                 (A) (A) (A) (A) (A) (A) (A) (A) (A) (A) (A) (A)
                 (A) (A) (A) (A) (A) (A) (A) (A) (A) (A) (A) (A)
                 (A) (A) (A) (A) (A) (A) (A) (A) (A) (A) (A) (A)
                 (A) (A)
 The electronic state is 1-A.
 Alpha  occ. eigenvalues -- -482.76059-101.45129 -62.44213 -56.27414 -56.27107
 Alpha  occ. eigenvalues --  -56.27103 -19.15596 -19.15354 -19.15150 -19.15146
 Alpha  occ. eigenvalues --  -19.14997 -19.14817 -19.14731 -19.14614 -14.50083
 Alpha  occ. eigenvalues --  -14.50073 -14.49994 -14.49982  -9.40570  -8.65981
 Alpha  occ. eigenvalues --   -7.17406  -7.16512  -7.16471  -6.49209  -6.48099
 Alpha  occ. eigenvalues --   -6.48086  -4.05480  -2.60656  -2.60345  -2.60334
 Alpha  occ. eigenvalues --   -2.59462  -2.59461  -2.27129  -2.26857  -2.26577
 Alpha  occ. eigenvalues --   -1.10687  -1.09765  -1.09487  -1.09125  -0.94231
 Alpha  occ. eigenvalues --   -0.94027  -0.93451  -0.93119  -0.77048  -0.74174
 Alpha  occ. eigenvalues --   -0.68109  -0.65990  -0.65748  -0.63959  -0.52203
 Alpha  occ. eigenvalues --   -0.50881  -0.50709  -0.49637  -0.48557  -0.48146
 Alpha  occ. eigenvalues --   -0.47538  -0.46500  -0.45937  -0.45440  -0.45236
 Alpha  occ. eigenvalues --   -0.43397  -0.39094  -0.38167  -0.37658  -0.36444
 Alpha  occ. eigenvalues --   -0.35674  -0.30510  -0.29899  -0.29118  -0.28815
 Alpha  occ. eigenvalues --   -0.27738  -0.27549  -0.27289  -0.26995  -0.26468
 Alpha  occ. eigenvalues --   -0.26295  -0.25805  -0.25353  -0.25156  -0.24805
 Alpha  occ. eigenvalues --   -0.24191  -0.22997
 Alpha virt. eigenvalues --   -0.15577  -0.13882  -0.12587  -0.09847  -0.04121
 Alpha virt. eigenvalues --   -0.01176   0.05653   0.06418   0.06799   0.16617
 Alpha virt. eigenvalues --    0.17363   0.17726   0.18756   0.19240   0.19882
 Alpha virt. eigenvalues --    0.20052   0.20705   0.20824   0.29566   0.30938
 Alpha virt. eigenvalues --    0.31485   0.39701   0.42628   0.45142   0.47113
 Alpha virt. eigenvalues --    0.48402   0.49361   0.55577   0.58281   0.60928
 Alpha virt. eigenvalues --    0.61241   0.62865   0.65692   0.68653   0.69047
 Alpha virt. eigenvalues --    0.69552   0.71602   0.72518   0.74492   0.75315
 Alpha virt. eigenvalues --    0.78062   0.79797   0.80744   0.82697   0.84814
 Alpha virt. eigenvalues --    0.86792   0.87834   0.87993   0.89115   0.90507
 Alpha virt. eigenvalues --    0.91135   0.91499   0.93235   0.93390   0.95118
 Alpha virt. eigenvalues --    0.95361   0.96419   0.97996   0.98550   0.99259
 Alpha virt. eigenvalues --    1.01062   1.02146   1.04211   1.06080   1.07308
 Alpha virt. eigenvalues --    1.07811   1.09090   1.09587   1.13254   1.13546
 Alpha virt. eigenvalues --    1.15151   1.16469   1.17254   1.17514   1.19178
 Alpha virt. eigenvalues --    1.19618   1.22472   1.24519   1.25656   1.28048
 Alpha virt. eigenvalues --    1.28755   1.29448   1.33281   1.36024   1.36472
 Alpha virt. eigenvalues --    1.42678   1.43652   1.47019   1.50638   1.53703
 Alpha virt. eigenvalues --    1.55753   1.57279   1.86207   1.87268   1.91263
 Alpha virt. eigenvalues --    1.91730   1.97479   1.98884   2.02046   2.03774
 Alpha virt. eigenvalues --    2.07773   2.11195   2.16620   2.22821   2.29314
 Alpha virt. eigenvalues --    2.29663   2.30930   2.33561   2.34098   2.34299
 Alpha virt. eigenvalues --    2.34919   2.36243   2.64117   2.64160   2.65093
 Alpha virt. eigenvalues --    2.65722   2.65870   2.66168   2.66370   2.66684
 Alpha virt. eigenvalues --    2.66792   2.67304   2.67851   2.68553   2.69353
 Alpha virt. eigenvalues --    2.70275   2.71667   2.73731   2.75280   2.75901
 Alpha virt. eigenvalues --    2.77028   2.77659   2.96070   2.97803   2.98288
 Alpha virt. eigenvalues --    3.00432   3.01000   3.01410   3.01636   3.02156
 Alpha virt. eigenvalues --    3.20985   3.22712   3.23368   3.24334   3.44635
 Alpha virt. eigenvalues --    3.47239   3.49594   3.50302   3.51563   3.52753
 Alpha virt. eigenvalues --    3.60750   3.61775   3.67519   3.71633   3.73046
 Alpha virt. eigenvalues --    3.74207   3.79133   8.82237
          Condensed to atoms (all electrons):
               1          2          3          4          5          6
     1  Pt  17.388950   0.031921  -0.008120  -0.008883  -0.033606   0.038455
     2  N    0.031921   6.655561   0.178176   0.177167  -0.021737  -0.004993
     3  O   -0.008120   0.178176   8.192369  -0.093334  -0.013567   0.000120
     4  O   -0.008883   0.177167  -0.093334   8.199098  -0.000998   0.000091
     5  N   -0.033606  -0.021737  -0.013567  -0.000998   6.788241  -0.016829
     6  N    0.038455  -0.004993   0.000120   0.000091  -0.016829   6.645533
     7  O   -0.011508   0.000101   0.000000  -0.000001  -0.000577   0.185058
     8  O    0.007569   0.000125  -0.000003   0.000000  -0.017735   0.166806
     9  O    0.005723  -0.004428   0.002030  -0.001126   0.170123   0.000169
    10  O   -0.000127  -0.002778  -0.004573   0.000167   0.174143   0.000262
    11  Cl   0.260133  -0.004582   0.000248  -0.027990  -0.013421  -0.009491
    12  N   -0.027348  -0.018795  -0.001111   0.000279  -0.022826  -0.012714
    13  O   -0.009538  -0.003851   0.000051   0.000094   0.000406   0.000154
    14  O    0.008878   0.000184   0.000077   0.000001   0.000010  -0.019530
    15  Br   0.238192  -0.007288   0.000356  -0.000203  -0.004513  -0.010690
               7          8          9         10         11         12
     1  Pt  -0.011508   0.007569   0.005723  -0.000127   0.260133  -0.027348
     2  N    0.000101   0.000125  -0.004428  -0.002778  -0.004582  -0.018795
     3  O    0.000000  -0.000003   0.002030  -0.004573   0.000248  -0.001111
     4  O   -0.000001   0.000000  -0.001126   0.000167  -0.027990   0.000279
     5  N   -0.000577  -0.017735   0.170123   0.174143  -0.013421  -0.022826
     6  N    0.185058   0.166806   0.000169   0.000262  -0.009491  -0.012714
     7  O    8.177662  -0.090110   0.000023  -0.000002  -0.017260   0.000242
     8  O   -0.090110   8.211776   0.000077  -0.000161   0.000666  -0.001561
     9  O    0.000023   0.000077   8.198394  -0.094367  -0.016576   0.000283
    10  O   -0.000002  -0.000161  -0.094367   8.185347   0.000097  -0.011572
    11  Cl  -0.017260   0.000666  -0.016576   0.000097  16.949078  -0.003244
    12  N    0.000242  -0.001561   0.000283  -0.011572  -0.003244   6.754225
    13  O    0.000001   0.000009   0.000002   0.000134   0.000044   0.177524
    14  O    0.000272   0.000080   0.000001  -0.000064   0.000051   0.169198
    15  Br   0.000332   0.000345   0.000118   0.000112  -0.018977  -0.023934
              13         14         15
     1  Pt  -0.009538   0.008878   0.238192
     2  N   -0.003851   0.000184  -0.007288
     3  O    0.000051   0.000077   0.000356
     4  O    0.000094   0.000001  -0.000203
     5  N    0.000406   0.000010  -0.004513
     6  N    0.000154  -0.019530  -0.010690
     7  O    0.000001   0.000272   0.000332
     8  O    0.000009   0.000080   0.000345
     9  O    0.000002   0.000001   0.000118
    10  O    0.000134  -0.000064   0.000112
    11  Cl   0.000044   0.000051  -0.018977
    12  N    0.177524   0.169198  -0.023934
    13  O    8.199455  -0.092292  -0.005514
    14  O   -0.092292   8.211764   0.001181
    15  Br  -0.005514   0.001181  34.875318
 Mulliken charges:
               1
     1  Pt   0.119308
     2  N    0.025217
     3  O   -0.252720
     4  O   -0.244362
     5  N    0.012888
     6  N    0.037599
     7  O   -0.244233
     8  O   -0.277886
     9  O   -0.260445
    10  O   -0.246618
    11  Cl  -0.098776
    12  N    0.021354
    13  O   -0.266680
    14  O   -0.279810
    15  Br  -0.044836
 Sum of Mulliken charges =  -2.00000
 Mulliken charges with hydrogens summed into heavy atoms:
               1
     1  Pt   0.119308
     2  N    0.025217
     3  O   -0.252720
     4  O   -0.244362
     5  N    0.012888
     6  N    0.037599
     7  O   -0.244233
     8  O   -0.277886
     9  O   -0.260445
    10  O   -0.246618
    11  Cl  -0.098776
    12  N    0.021354
    13  O   -0.266680
    14  O   -0.279810
    15  Br  -0.044836
 Electronic spatial extent (au):  <R**2>=           3518.5251
 Charge=             -2.0000 electrons
 Dipole moment (field-independent basis, Debye):
    X=              4.1153    Y=             -0.0153    Z=             -1.2028  Tot=              4.2875
 Quadrupole moment (field-independent basis, Debye-Ang):
   XX=           -153.3765   YY=           -154.6473   ZZ=           -153.4500
   XY=             -3.5818   XZ=             -4.5262   YZ=              0.5104
 Traceless Quadrupole moment (field-independent basis, Debye-Ang):
   XX=              0.4481   YY=             -0.8227   ZZ=              0.3746
   XY=             -3.5818   XZ=             -4.5262   YZ=              0.5104
 Octapole moment (field-independent basis, Debye-Ang**2):
  XXX=             78.9552  YYY=            -17.4352  ZZZ=            -21.6333  XYY=             15.0480
  XXY=             11.6179  XXZ=              0.2054  XZZ=             18.4644  YZZ=              0.5607
  YYZ=            -14.5733  XYZ=              9.7333
 Hexadecapole moment (field-independent basis, Debye-Ang**3):
 XXXX=          -1654.4125 YYYY=          -1438.4924 ZZZZ=          -1385.6085 XXXY=            -38.8236
 XXXZ=            -32.6026 YYYX=            -40.0353 YYYZ=             -2.2511 ZZZX=            -51.0344
 ZZZY=            -12.4059 XXYY=           -505.9977 XXZZ=           -496.2029 YYZZ=           -460.2130
 XXYZ=             13.7298 YYXZ=            -17.3343 ZZXY=              1.9364
 N-N= 2.054877257731D+03 E-N=-1.358213951799D+04  KE= 3.881694529965D+03
   1 Symmetry operations used in ECPInt.
 ECPInt:  NShTT=    5050 NPrTT=   21966 LenC2=    4766 LenP2D=   14627.
 LDataN:  DoStor=T MaxTD1= 7 Len=  274
 D1PCM: PCM CHGder 1st derivatives, ID1Alg=3 FixD1E=F DoIter=F DoCFld=F I1PDM=0.
 Calling FoFJK, ICntrl=      2127 FMM=F ISym2X=0 I1Cent= 0 IOpClX= 0 NMat=1 NMatS=1 NMatT=0.
 Defaulting to unpruned grid for atomic number  78.
 Defaulting to unpruned grid for atomic number  78.
 Defaulting to unpruned grid for atomic number  78.
 Defaulting to unpruned grid for atomic number  78.
 Defaulting to unpruned grid for atomic number  78.
 Defaulting to unpruned grid for atomic number  78.
 Defaulting to unpruned grid for atomic number  78.
 Defaulting to unpruned grid for atomic number  78.
 ***** Axes restored to original set *****
 -------------------------------------------------------------------
 Center     Atomic                   Forces (Hartrees/Bohr)
 Number     Number              X              Y              Z
 -------------------------------------------------------------------
      1       78          -0.021482602   -0.040705488   -0.017231824
      2        7           0.108210818    0.166570751    0.079817096
      3        8          -0.017261090   -0.097466860    0.026800909
      4        8          -0.012471177   -0.051415582   -0.096515318
      5        7           0.178240590    0.109538629   -0.003729932
      6        7          -0.103051395    0.119351208    0.138307155
      7        8           0.019779325   -0.007546957   -0.105517195
      8        8           0.021350990   -0.093921526   -0.013107132
      9        8          -0.079655994   -0.016117766   -0.066310626
     10        8          -0.079265713   -0.018511251    0.066141226
     11       17          -0.009720412   -0.009320498    0.049901023
     12        7          -0.056103565   -0.171298744   -0.101216018
     13        8          -0.035720775    0.094796115    0.022602116
     14        8           0.085172246    0.050401818    0.018824015
     15       35           0.001978756   -0.034353849    0.001234503
 -------------------------------------------------------------------
 Cartesian Forces:  Max     0.178240590 RMS     0.077344174

 GradGradGradGradGradGradGradGradGradGradGradGradGradGradGradGradGradGrad
 Berny optimization.
 FormGI is forming the generalized inverse of G from B-inverse, IUseBI=4.
 Internal  Forces:  Max     0.100740924 RMS     0.039117669
 Search for a local minimum.
 Step number   1 out of a maximum of   90
 All quantities printed in internal units (Hartrees-Bohrs-Radians)
 Mixed Optimization -- RFO/linear search
 Second derivative matrix not updated -- first step.
 ITU=  0
     Eigenvalues ---    0.00230   0.00230   0.00230   0.00230   0.03391
     Eigenvalues ---    0.03424   0.04734   0.04734   0.06423   0.06423
     Eigenvalues ---    0.08233   0.08474   0.08487   0.08487   0.12615
     Eigenvalues ---    0.16743   0.16743   0.19509   0.20378   0.20378
     Eigenvalues ---    0.20378   0.20378   0.22001   0.25000   0.25000
     Eigenvalues ---    0.25000   0.25000   0.25000   0.25000   0.25000
     Eigenvalues ---    0.25000   0.52948   0.52948   0.52948   0.52948
     Eigenvalues ---    0.52948   0.52948   0.52948   0.52948
 RFO step:  Lambda=-2.29848352D-01 EMin= 2.30000000D-03
 Linear search not attempted -- first point.
 Maximum step size (   0.300) exceeded in Quadratic search.
    -- Step size scaled by   0.525
 Iteration  1 RMS(Cart)=  0.06970667 RMS(Int)=  0.00223390
 Iteration  2 RMS(Cart)=  0.00263392 RMS(Int)=  0.00099917
 Iteration  3 RMS(Cart)=  0.00000968 RMS(Int)=  0.00099915
 Iteration  4 RMS(Cart)=  0.00000003 RMS(Int)=  0.00099915
 Variable       Old X    -DE/DX   Delta X   Delta X   Delta X     New X
                                 (Linear)    (Quad)   (Total)
    R1        3.76056   0.07848   0.00000   0.09508   0.09508   3.85563
    R2        3.76056   0.07493   0.00000   0.09078   0.09078   3.85133
    R3        3.76056   0.06192   0.00000   0.07502   0.07502   3.83557
    R4        4.30858   0.04990   0.00000   0.05828   0.05828   4.36686
    R5        3.76056   0.05977   0.00000   0.07241   0.07241   3.83297
    R6        4.59203   0.03435   0.00000   0.04247   0.04247   4.63450
    R7        2.57003  -0.09397   0.00000  -0.06502  -0.06502   2.50501
    R8        2.57003  -0.10074   0.00000  -0.06970  -0.06970   2.50033
    R9        2.57003  -0.09889   0.00000  -0.06842  -0.06842   2.50161
   R10        2.57003  -0.09543   0.00000  -0.06603  -0.06603   2.50400
   R11        2.57003  -0.09946   0.00000  -0.06881  -0.06881   2.50122
   R12        2.57003  -0.09080   0.00000  -0.06282  -0.06282   2.50720
   R13        2.57003  -0.09683   0.00000  -0.06699  -0.06699   2.50303
   R14        2.57003  -0.09439   0.00000  -0.06531  -0.06531   2.50472
    A1        1.57080   0.00501   0.00000   0.00680   0.00675   1.57755
    A2        1.57080   0.00810   0.00000   0.01169   0.01164   1.58244
    A3        1.57080  -0.00262   0.00000  -0.00254  -0.00252   1.56828
    A4        1.57080  -0.00285   0.00000  -0.00319  -0.00314   1.56766
    A5        1.57080  -0.00901   0.00000  -0.01250  -0.01255   1.55825
    A6        1.57080   0.00783   0.00000   0.01312   0.01304   1.58384
    A7        1.57080   0.00020   0.00000   0.00122   0.00124   1.57203
    A8        1.57080  -0.00987   0.00000  -0.01398  -0.01393   1.55687
    A9        1.57080   0.00439   0.00000   0.00483   0.00488   1.57568
   A10        1.57080   0.00685   0.00000   0.00888   0.00894   1.57974
   A11        1.57080  -0.00573   0.00000  -0.00938  -0.00934   1.56146
   A12        1.57080  -0.00230   0.00000  -0.00497  -0.00497   1.56582
   A13        1.91063   0.03182   0.00000   0.04323   0.04112   1.95175
   A14        1.91063   0.05105   0.00000   0.06429   0.06221   1.97285
   A15        1.91063  -0.01299   0.00000   0.00257  -0.00103   1.90961
   A16        1.91063   0.04438   0.00000   0.05829   0.05598   1.96661
   A17        1.91063   0.03465   0.00000   0.04764   0.04530   1.95594
   A18        1.91063  -0.00319   0.00000   0.01590   0.01196   1.92259
   A19        1.91063   0.03460   0.00000   0.04523   0.04402   1.95465
   A20        1.91063   0.02251   0.00000   0.03199   0.03076   1.94139
   A21        1.91063  -0.00365   0.00000   0.01070   0.00853   1.91916
   A22        1.91063   0.02728   0.00000   0.03873   0.03706   1.94769
   A23        1.91063   0.03538   0.00000   0.04760   0.04594   1.95657
   A24        1.91063   0.00189   0.00000   0.01979   0.01691   1.92754
   A25        3.14159  -0.00400   0.00000  -0.00570  -0.00579   3.13580
   A26        3.14159   0.00217   0.00000   0.00362   0.00361   3.14521
   A27        3.14159   0.00548   0.00000   0.00915   0.00913   3.15072
   A28        3.14159   0.00177   0.00000   0.00229   0.00236   3.14395
   A29        3.14159   0.00209   0.00000   0.00374   0.00375   3.14534
   A30        3.14159  -0.00803   0.00000  -0.01434  -0.01434   3.12725
    D1       -0.65581  -0.01464   0.00000  -0.02976  -0.03027  -0.68608
    D2        1.43858   0.02020   0.00000   0.03923   0.03975   1.47834
    D3       -2.22661  -0.02246   0.00000  -0.04288  -0.04339  -2.27000
    D4       -0.13221   0.01237   0.00000   0.02611   0.02663  -0.10558
    D5        0.91499  -0.01443   0.00000  -0.02853  -0.02905   0.88594
    D6        3.00938   0.02040   0.00000   0.04046   0.04097   3.05035
    D7        2.48578  -0.01673   0.00000  -0.03350  -0.03401   2.45177
    D8       -1.70301   0.01810   0.00000   0.03549   0.03601  -1.66700
    D9       -2.52842  -0.03207   0.00000  -0.06454  -0.06504  -2.59346
   D10       -0.43402  -0.00280   0.00000  -0.00584  -0.00599  -0.44001
   D11       -0.43402   0.00142   0.00000   0.00257   0.00271  -0.43132
   D12        1.66037   0.03069   0.00000   0.06127   0.06176   1.72214
   D13       -0.98912  -0.02114   0.00000  -0.03759  -0.03831  -1.02742
   D14        1.10528   0.02335   0.00000   0.04675   0.04750   1.15278
   D15        2.15247  -0.02291   0.00000  -0.03988  -0.04067   2.11181
   D16       -2.03632   0.02158   0.00000   0.04446   0.04514  -1.99118
   D17        0.58168  -0.01304   0.00000  -0.02590  -0.02657   0.55510
   D18        2.67607   0.03145   0.00000   0.05844   0.05923   2.73530
   D19       -2.55991  -0.01852   0.00000  -0.03504  -0.03580  -2.59571
   D20       -0.46552   0.02598   0.00000   0.04929   0.05001  -0.41551
   D21       -1.87261  -0.01888   0.00000  -0.03680  -0.03716  -1.90977
   D22        0.22179   0.01161   0.00000   0.02359   0.02388   0.24567
   D23       -0.30181  -0.01106   0.00000  -0.02368  -0.02394  -0.32575
   D24        1.79259   0.01944   0.00000   0.03671   0.03710   1.82969
   D25        2.83978  -0.01909   0.00000  -0.03802  -0.03834   2.80145
   D26       -1.34901   0.01141   0.00000   0.02237   0.02270  -1.32630
   D27        1.26899  -0.01679   0.00000  -0.03306  -0.03341   1.23558
   D28       -2.91980   0.01371   0.00000   0.02733   0.02763  -2.89217
   D29        0.84811  -0.02233   0.00000  -0.04195  -0.04244   0.80567
   D30        2.94251   0.01835   0.00000   0.03516   0.03576   2.97827
   D31        2.41891  -0.01732   0.00000  -0.03515  -0.03570   2.38321
   D32       -1.76988   0.02336   0.00000   0.04196   0.04251  -1.72737
   D33       -2.29348  -0.02633   0.00000  -0.04765  -0.04824  -2.34172
   D34       -0.19908   0.01435   0.00000   0.02947   0.02997  -0.16911
   D35       -0.72268  -0.01949   0.00000  -0.03876  -0.03932  -0.76200
   D36        1.37171   0.02120   0.00000   0.03835   0.03889   1.41060
         Item               Value     Threshold  Converged?
 Maximum Force            0.100741     0.000450     NO 
 RMS     Force            0.039118     0.000300     NO 
 Maximum Displacement     0.236338     0.001800     NO 
 RMS     Displacement     0.068000     0.001200     NO 
 Predicted change in Energy=-1.054341D-01
 GradGradGradGradGradGradGradGradGradGradGradGradGradGradGradGradGradGrad

                          Input orientation:                          
 ---------------------------------------------------------------------
 Center     Atomic      Atomic             Coordinates (Angstroms)
 Number     Number       Type             X           Y           Z
 ---------------------------------------------------------------------
      1         78           0       -0.315398    0.330442    0.024110
      2          7           0        1.724860    0.318891    0.014760
      3          8           0        2.219440    1.259883   -0.777152
      4          8           0        2.248849    0.441246    1.223521
      5          7           0       -0.317720    2.368364    0.002475
      6          7           0       -2.344914    0.353745    0.038074
      7          8           0       -2.837097   -0.036305    1.203191
      8          8           0       -2.813807    1.555472   -0.272202
      9          8           0        0.318061    2.890525    1.039566
     10          8           0        0.175003    2.854772   -1.127309
     11         17           0       -0.331744    0.324812    2.334886
     12          7           0       -0.319726    0.306398   -2.004061
     13          8           0        0.527266   -0.592441   -2.482728
     14          8           0       -1.533576    0.107653   -2.497887
     15         35           0       -0.321508   -2.121966    0.040999
 ---------------------------------------------------------------------
                    Distance matrix (angstroms):
                    1          2          3          4          5
     1  Pt   0.000000
     2  N    2.040313   0.000000
     3  O    2.816253   1.325594   0.000000
     4  O    2.833060   1.323116   2.161879   0.000000
     5  N    2.038038   2.893549   2.876409   3.433950   0.000000
     6  N    2.029697   4.069990   4.724299   4.745060   2.858228
     7  O    2.807792   4.727577   5.583048   5.108357   3.683939
     8  O    2.798311   4.712852   5.067141   5.395291   2.639448
     9  O    2.826030   3.105256   3.094301   3.124220   1.323793
    10  O    2.817534   3.183876   2.616486   3.956304   1.325059
    11  Cl   2.310840   3.100426   4.131304   2.812143   3.101038
    12  N    2.028318   2.873348   2.976878   4.127111   2.877133
    13  O    2.801077   2.915854   3.033735   4.215286   3.956843
    14  O    2.809637   4.120124   4.286454   5.316662   3.583424
    15  Br   2.452474   3.185294   4.308444   3.817741   4.490497
                    6          7          8          9         10
     6  N    0.000000
     7  O    1.323587   0.000000
     8  O    1.326755   2.170502   0.000000
     9  O    3.811781   4.306754   3.648520   0.000000
    10  O    3.736740   4.781454   3.369328   2.171886   0.000000
    11  Cl   3.054346   2.772711   3.804216   2.946690   4.317902
    12  N    2.876446   4.091585   3.283285   4.043285   2.740011
    13  O    3.936893   5.021377   4.545627   4.957961   3.720823
    14  O    2.673934   3.926559   2.947685   4.866879   3.513458
    15  Br   3.197394   3.468264   4.453448   5.150850   5.136087
                   11         12         13         14         15
    11  Cl   0.000000
    12  N    4.339003   0.000000
    13  O    4.978821   1.324549   0.000000
    14  O    4.984701   1.325442   2.176564   0.000000
    15  Br   3.353915   3.174780   3.070679   3.589742   0.000000
 Stoichiometry    BrClN4O8Pt(2-)
 Framework group  C1[X(BrClN4O8Pt)]
 Deg. of freedom    39
 Full point group                 C1      NOp   1
 Largest Abelian subgroup         C1      NOp   1
 Largest concise Abelian subgroup C1      NOp   1
                         Standard orientation:                         
 ---------------------------------------------------------------------
 Center     Atomic      Atomic             Coordinates (Angstroms)
 Number     Number       Type             X           Y           Z
 ---------------------------------------------------------------------
      1         78           0       -0.103331    0.058633   -0.002284
      2          7           0       -0.611259   -1.847803   -0.522274
      3          8           0       -1.598580   -2.316788    0.227692
      4          8           0       -0.934391   -1.967376   -1.799742
      5          7           0       -2.068478    0.520537    0.277792
      6          7           0        0.390243    1.959045    0.512002
      7          8           0        0.823081    2.656932   -0.526018
      8          8           0       -0.631877    2.583207    1.082938
      9          8           0       -2.795813    0.339792   -0.813419
     10          8           0       -2.596550   -0.145869    1.294072
     11         17           0       -0.230573    0.723933   -2.211621
     12          7           0        0.041082   -0.514526    1.938002
     13          8           0        0.721276   -1.644160    2.063280
     14          8           0        0.571310    0.431938    2.699486
     15         35           0        2.264309   -0.491498   -0.328264
 ---------------------------------------------------------------------
 Rotational constants (GHZ):      0.4590886      0.3791960      0.3724539
 Basis read from rwf:  (5D, 7F)
 Pseudo-potential data read from rwf file.
 There are   258 symmetry adapted cartesian basis functions of A   symmetry.
 There are   240 symmetry adapted basis functions of A   symmetry.
   240 basis functions,   460 primitive gaussians,   258 cartesian basis functions
    82 alpha electrons       82 beta electrons
       nuclear repulsion energy      2026.0591934035 Hartrees.
 NAtoms=   15 NActive=   15 NUniq=   15 SFac= 1.00D+00 NAtFMM=   60 NAOKFM=F Big=F
 Integral buffers will be    131072 words long.
 Raffenetti 2 integral format.
 Two-electron integral symmetry is turned on.
 ------------------------------------------------------------------------------
 Polarizable Continuum Model (PCM)
 =================================
 Model                : PCM (using non-symmetric T matrix).
 Atomic radii         : UFF (Universal Force Field).
 Polarization charges : Total charges.
 Charge compensation  : None.
 Solution method      : On-the-fly selection.
 Cavity type          : Scaled VdW (van der Waals Surface) (Alpha=1.100).
 Cavity algorithm     : GePol (No added spheres)
                        Default sphere list used, NSphG=   15.
                        Lebedev-Laikov grids with approx.  5.0 points / Ang**2.
                        Smoothing algorithm: Karplus/York (Gamma=1.0000).
                        Polarization charges: spherical gaussians, with
                                              point-specific exponents (IZeta= 3).
                        Self-potential: point-specific (ISelfS= 7).
                        Self-field    : sphere-specific E.n sum rule (ISelfD= 2).
 1st derivatives      : Analytical E(r).r(x)/FMM algorithm (CHGder, D1EAlg=3).
                        Cavity 1st derivative terms included.
 Solvent              : Water, Eps=  78.355300 Eps(inf)=   1.777849
 ------------------------------------------------------------------------------
 Spheres list:
 ISph  on   Nord     Re0    Alpha      Xe            Ye            Ze
    1  Pt      1    1.3770  1.100     -0.103331      0.058633     -0.002284
    2   N      2    1.8300  1.100     -0.611259     -1.847803     -0.522274
    3   O      3    1.7500  1.100     -1.598580     -2.316788      0.227692
    4   O      4    1.7500  1.100     -0.934391     -1.967376     -1.799742
    5   N      5    1.8300  1.100     -2.068478      0.520537      0.277792
    6   N      6    1.8300  1.100      0.390243      1.959045      0.512002
    7   O      7    1.7500  1.100      0.823081      2.656932     -0.526018
    8   O      8    1.7500  1.100     -0.631877      2.583207      1.082938
    9   O      9    1.7500  1.100     -2.795813      0.339792     -0.813419
   10   O     10    1.7500  1.100     -2.596550     -0.145869      1.294072
   11  Cl     11    1.9735  1.100     -0.230573      0.723933     -2.211621
   12   N     12    1.8300  1.100      0.041082     -0.514526      1.938002
   13   O     13    1.7500  1.100      0.721276     -1.644160      2.063280
   14   O     14    1.7500  1.100      0.571310      0.431938      2.699486
   15  Br     15    2.0945  1.100      2.264309     -0.491498     -0.328264
 ------------------------------------------------------------------------------
 One-electron integrals computed using PRISM.
   1 Symmetry operations used in ECPInt.
 ECPInt:  NShTT=    5050 NPrTT=   21966 LenC2=    4752 LenP2D=   14516.
 LDataN:  DoStor=T MaxTD1= 6 Len=  172
 NBasis=   240 RedAO= T EigKep=  3.04D-03  NBF=   240
 NBsUse=   240 1.00D-06 EigRej= -1.00D+00 NBFU=   240
 Defaulting to unpruned grid for atomic number  78.
 Initial guess from the checkpoint file:  "/home/scr/diego/Gau-15735.chk"
 B after Tr=     0.000000    0.000000    0.000000
         Rot=    0.987200    0.157862    0.022159   -0.004948 Ang=  18.35 deg.
 ExpMin= 2.90D-02 ExpMax= 1.13D+05 ExpMxC= 1.70D+04 IAcc=3 IRadAn=         5 AccDes= 0.00D+00
 Harris functional with IExCor=  402 and IRadAn=       5 diagonalized for initial guess.
 HarFok:  IExCor=  402 AccDes= 0.00D+00 IRadAn=         5 IDoV= 1 UseB2=F ITyADJ=14
 ICtDFT=  3500011 ScaDFX=  1.000000  1.000000  1.000000  1.000000
 Defaulting to unpruned grid for atomic number  78.
 Defaulting to unpruned grid for atomic number  78.
 Defaulting to unpruned grid for atomic number  78.
 Defaulting to unpruned grid for atomic number  78.
 Defaulting to unpruned grid for atomic number  78.
 Defaulting to unpruned grid for atomic number  78.
 Defaulting to unpruned grid for atomic number  78.
 Defaulting to unpruned grid for atomic number  78.
 FoFCou: FMM=F IPFlag=           0 FMFlag=      100000 FMFlg1=           0
         NFxFlg=           0 DoJE=T BraDBF=F KetDBF=T FulRan=T
         wScrn=  0.000000 ICntrl=     500 IOpCl=  0 I1Cent=   200000004 NGrid=           0
         NMat0=    1 NMatS0=      1 NMatT0=    0 NMatD0=    1 NMtDS0=    0 NMtDT0=    0
 Petite list used in FoFCou.
 Keep R1 ints in memory in canonical form, NReq=427106744.
 Requested convergence on RMS density matrix=1.00D-08 within 128 cycles.
 Requested convergence on MAX density matrix=1.00D-06.
 Requested convergence on             energy=1.00D-06.
 No special actions if energy rises.
 Defaulting to unpruned grid for atomic number  78.
 Defaulting to unpruned grid for atomic number  78.
 Defaulting to unpruned grid for atomic number  78.
 Defaulting to unpruned grid for atomic number  78.
 Defaulting to unpruned grid for atomic number  78.
 Defaulting to unpruned grid for atomic number  78.
 Defaulting to unpruned grid for atomic number  78.
 Defaulting to unpruned grid for atomic number  78.
 Inv3:  Mode=1 IEnd=     9208512.
 Iteration    1 A*A^-1 deviation from unit magnitude is 6.77D-15 for    209.
 Iteration    1 A*A^-1 deviation from orthogonality  is 4.23D-15 for   1633   1288.
 Iteration    1 A^-1*A deviation from unit magnitude is 7.33D-15 for    580.
 Iteration    1 A^-1*A deviation from orthogonality  is 4.54D-11 for   1153   1042.
 Error on total polarization charges =  0.00853
 SCF Done:  E(RB3LYP) =  -3973.07289377     A.U. after   17 cycles
            NFock= 17  Conv=0.75D-08     -V/T= 2.0235
   1 Symmetry operations used in ECPInt.
 ECPInt:  NShTT=    5050 NPrTT=   21966 LenC2=    4752 LenP2D=   14516.
 LDataN:  DoStor=T MaxTD1= 7 Len=  274
 D1PCM: PCM CHGder 1st derivatives, ID1Alg=3 FixD1E=F DoIter=F DoCFld=F I1PDM=0.
 Calling FoFJK, ICntrl=      2127 FMM=F ISym2X=0 I1Cent= 0 IOpClX= 0 NMat=1 NMatS=1 NMatT=0.
 Defaulting to unpruned grid for atomic number  78.
 Defaulting to unpruned grid for atomic number  78.
 Defaulting to unpruned grid for atomic number  78.
 Defaulting to unpruned grid for atomic number  78.
 Defaulting to unpruned grid for atomic number  78.
 Defaulting to unpruned grid for atomic number  78.
 Defaulting to unpruned grid for atomic number  78.
 Defaulting to unpruned grid for atomic number  78.
 ***** Axes restored to original set *****
 -------------------------------------------------------------------
 Center     Atomic                   Forces (Hartrees/Bohr)
 Number     Number              X              Y              Z
 -------------------------------------------------------------------
      1       78          -0.015520420   -0.027550954   -0.019142341
      2        7           0.101132918    0.153188898    0.069031573
      3        8          -0.029604450   -0.082924596    0.012722868
      4        8          -0.027239527   -0.051084439   -0.072490134
      5        7           0.160064323    0.100141666   -0.006247514
      6        7          -0.091865264    0.110409367    0.125044457
      7        8           0.024670270   -0.015959614   -0.088898849
      8        8           0.025325592   -0.078165267   -0.019954987
      9        8          -0.070652558   -0.027235426   -0.047243393
     10        8          -0.068689542   -0.027472876    0.051010012
     11       17          -0.004039437   -0.005661771    0.034192860
     12        7          -0.049631911   -0.153393289   -0.090732313
     13        8          -0.023872518    0.082792875    0.026177190
     14        8           0.068130125    0.048741290    0.025502385
     15       35           0.001792398   -0.025825864    0.001028186
 -------------------------------------------------------------------
 Cartesian Forces:  Max     0.160064323 RMS     0.068661650

 GradGradGradGradGradGradGradGradGradGradGradGradGradGradGradGradGradGrad
 Berny optimization.
 Using GEDIIS/GDIIS optimizer.
 FormGI is forming the generalized inverse of G from B-inverse, IUseBI=4.
 Internal  Forces:  Max     0.082727653 RMS     0.030631521
 Search for a local minimum.
 Step number   2 out of a maximum of   90
 All quantities printed in internal units (Hartrees-Bohrs-Radians)
 Mixed Optimization -- RFO/linear search
 Update second derivatives using D2CorX and points    1    2
 DE= -1.06D-01 DEPred=-1.05D-01 R= 1.01D+00
 TightC=F SS=  1.41D+00  RLast= 3.76D-01 DXNew= 5.0454D-01 1.1289D+00
 Trust test= 1.01D+00 RLast= 3.76D-01 DXMaxT set to 5.05D-01
 ITU=  1  0
 Use linear search instead of GDIIS.
 Linear search step of   0.595 exceeds DXMaxT=   0.505 but not scaled.
 Quartic linear search produced a step of  2.00000.
 Iteration  1 RMS(Cart)=  0.12982902 RMS(Int)=  0.00955091
 Iteration  2 RMS(Cart)=  0.00899991 RMS(Int)=  0.00545255
 Iteration  3 RMS(Cart)=  0.00012648 RMS(Int)=  0.00545180
 Iteration  4 RMS(Cart)=  0.00000159 RMS(Int)=  0.00545180
 Iteration  5 RMS(Cart)=  0.00000002 RMS(Int)=  0.00545180
 Variable       Old X    -DE/DX   Delta X   Delta X   Delta X     New X
                                 (Linear)    (Quad)   (Total)
    R1        3.85563   0.04413   0.19015   0.00000   0.19015   4.04579
    R2        3.85133   0.04545   0.18156   0.00000   0.18156   4.03289
    R3        3.83557   0.04217   0.15003   0.00000   0.15003   3.98561
    R4        4.36686   0.03424   0.11656   0.00000   0.11656   4.48341
    R5        3.83297   0.03931   0.14482   0.00000   0.14482   3.97779
    R6        4.63450   0.02583   0.08494   0.00000   0.08494   4.71945
    R7        2.50501  -0.07750  -0.13004   0.00000  -0.13004   2.37497
    R8        2.50033  -0.08172  -0.13940   0.00000  -0.13940   2.36093
    R9        2.50161  -0.08170  -0.13684   0.00000  -0.13684   2.36476
   R10        2.50400  -0.07912  -0.13206   0.00000  -0.13206   2.37194
   R11        2.50122  -0.08273  -0.13762   0.00000  -0.13762   2.36359
   R12        2.50720  -0.07510  -0.12565   0.00000  -0.12565   2.38156
   R13        2.50303  -0.08090  -0.13399   0.00000  -0.13399   2.36905
   R14        2.50472  -0.07921  -0.13061   0.00000  -0.13061   2.37411
    A1        1.57755  -0.00461   0.01350   0.00000   0.01328   1.59083
    A2        1.58244   0.00182   0.02328   0.00000   0.02305   1.60549
    A3        1.56828   0.00005  -0.00503   0.00000  -0.00491   1.56337
    A4        1.56766   0.00231  -0.00628   0.00000  -0.00607   1.56159
    A5        1.55825  -0.00446  -0.02509   0.00000  -0.02530   1.53295
    A6        1.58384   0.00464   0.02609   0.00000   0.02560   1.60944
    A7        1.57203   0.00040   0.00247   0.00000   0.00255   1.57458
    A8        1.55687  -0.00452  -0.02785   0.00000  -0.02746   1.52941
    A9        1.57568   0.00281   0.00976   0.00000   0.01001   1.58569
   A10        1.57974   0.00678   0.01788   0.00000   0.01816   1.59790
   A11        1.56146  -0.00352  -0.01868   0.00000  -0.01844   1.54302
   A12        1.56582  -0.00149  -0.00995   0.00000  -0.00999   1.55583
   A13        1.95175   0.00479   0.08224   0.00000   0.06925   2.02100
   A14        1.97285   0.02027   0.12443   0.00000   0.11182   2.08467
   A15        1.90961   0.00973  -0.00205   0.00000  -0.01977   1.88984
   A16        1.96661   0.02007   0.11195   0.00000   0.09722   2.06383
   A17        1.95594   0.01179   0.09061   0.00000   0.07568   2.03162
   A18        1.92259   0.01175   0.02392   0.00000   0.00397   1.92656
   A19        1.95465   0.01974   0.08803   0.00000   0.08037   2.03502
   A20        1.94139   0.00714   0.06152   0.00000   0.05368   1.99508
   A21        1.91916   0.00845   0.01706   0.00000   0.00570   1.92487
   A22        1.94769   0.01427   0.07412   0.00000   0.06317   2.01086
   A23        1.95657   0.01676   0.09188   0.00000   0.08107   2.03764
   A24        1.92754   0.01228   0.03381   0.00000   0.01861   1.94615
   A25        3.13580  -0.00907  -0.01159   0.00000  -0.01202   3.12378
   A26        3.14521  -0.00231   0.00723   0.00000   0.00721   3.15242
   A27        3.15072   0.00186   0.01825   0.00000   0.01814   3.16886
   A28        3.14395   0.00285   0.00472   0.00000   0.00505   3.14901
   A29        3.14534   0.00109   0.00749   0.00000   0.00751   3.15285
   A30        3.12725  -0.00500  -0.02869   0.00000  -0.02867   3.09858
    D1       -0.68608  -0.01475  -0.06053   0.00000  -0.06268  -0.74876
    D2        1.47834   0.01758   0.07951   0.00000   0.08174   1.56008
    D3       -2.27000  -0.01935  -0.08678   0.00000  -0.08893  -2.35893
    D4       -0.10558   0.01298   0.05326   0.00000   0.05549  -0.05009
    D5        0.88594  -0.01435  -0.05809   0.00000  -0.06026   0.82568
    D6        3.05035   0.01798   0.08195   0.00000   0.08416   3.13451
    D7        2.45177  -0.01585  -0.06802   0.00000  -0.07020   2.38157
    D8       -1.66700   0.01648   0.07202   0.00000   0.07423  -1.59277
    D9       -2.59346  -0.02886  -0.13009   0.00000  -0.13187  -2.72533
   D10       -0.44001  -0.00105  -0.01197   0.00000  -0.01238  -0.45238
   D11       -0.43132  -0.00006   0.00541   0.00000   0.00570  -0.42562
   D12        1.72214   0.02775   0.12353   0.00000   0.12519   1.84733
   D13       -1.02742  -0.01807  -0.07661   0.00000  -0.07953  -1.10695
   D14        1.15278   0.02278   0.09500   0.00000   0.09801   1.25079
   D15        2.11181  -0.02091  -0.08133   0.00000  -0.08458   2.02723
   D16       -1.99118   0.01994   0.09028   0.00000   0.09296  -1.89822
   D17        0.55510  -0.01628  -0.05315   0.00000  -0.05576   0.49935
   D18        2.73530   0.02457   0.11846   0.00000   0.12178   2.85708
   D19       -2.59571  -0.01811  -0.07160   0.00000  -0.07468  -2.67040
   D20       -0.41551   0.02274   0.10001   0.00000   0.10285  -0.31266
   D21       -1.90977  -0.01773  -0.07432   0.00000  -0.07607  -1.98584
   D22        0.24567   0.01306   0.04776   0.00000   0.04907   0.29474
   D23       -0.32575  -0.01297  -0.04788   0.00000  -0.04901  -0.37476
   D24        1.82969   0.01782   0.07420   0.00000   0.07612   1.90581
   D25        2.80145  -0.01807  -0.07667   0.00000  -0.07812   2.72333
   D26       -1.32630   0.01272   0.04541   0.00000   0.04702  -1.27929
   D27        1.23558  -0.01663  -0.06681   0.00000  -0.06848   1.16710
   D28       -2.89217   0.01416   0.05527   0.00000   0.05666  -2.83551
   D29        0.80567  -0.01663  -0.08489   0.00000  -0.08704   0.71863
   D30        2.97827   0.02320   0.07152   0.00000   0.07414   3.05241
   D31        2.38321  -0.02124  -0.07139   0.00000  -0.07378   2.30943
   D32       -1.72737   0.01859   0.08502   0.00000   0.08740  -1.63997
   D33       -2.34172  -0.02570  -0.09647   0.00000  -0.09904  -2.44075
   D34       -0.16911   0.01414   0.05994   0.00000   0.06214  -0.10697
   D35       -0.76200  -0.01894  -0.07864   0.00000  -0.08107  -0.84307
   D36        1.41060   0.02090   0.07777   0.00000   0.08011   1.49071
         Item               Value     Threshold  Converged?
 Maximum Force            0.082728     0.000450     NO 
 RMS     Force            0.030632     0.000300     NO 
 Maximum Displacement     0.406900     0.001800     NO 
 RMS     Displacement     0.124440     0.001200     NO 
 Predicted change in Energy=-1.273431D-01
 GradGradGradGradGradGradGradGradGradGradGradGradGradGradGradGradGradGrad

                          Input orientation:                          
 ---------------------------------------------------------------------
 Center     Atomic      Atomic             Coordinates (Angstroms)
 Number     Number       Type             X           Y           Z
 ---------------------------------------------------------------------
      1         78           0       -0.305095    0.318088    0.068566
      2          7           0        1.835407    0.284999    0.040823
      3          8           0        2.384336    1.082085   -0.760945
      4          8           0        2.464171    0.319504    1.119867
      5          7           0       -0.315698    2.451235    0.005265
      6          7           0       -2.412590    0.388691    0.110381
      7          8           0       -2.965675   -0.012618    1.157974
      8          8           0       -2.901837    1.494024   -0.246190
      9          8           0        0.187711    3.074802    0.966353
     10          8           0        0.020837    2.979033   -1.082689
     11         17           0       -0.356993    0.296505    2.440421
     12          7           0       -0.317821    0.247620   -2.035171
     13          8           0        0.521354   -0.529444   -2.548578
     14          8           0       -1.440024    0.145830   -2.590735
     15         35           0       -0.320093   -2.178860    0.114900
 ---------------------------------------------------------------------
                    Distance matrix (angstroms):
                    1          2          3          4          5
     1  Pt   0.000000
     2  N    2.140937   0.000000
     3  O    2.916303   1.256782   0.000000
     4  O    2.962106   1.249349   2.031098   0.000000
     5  N    2.134113   3.053047   3.122793   3.676179   0.000000
     6  N    2.109092   4.249831   4.924481   4.980627   2.943144
     7  O    2.893935   4.938318   5.788198   5.440127   3.797589
     8  O    2.867920   4.897509   5.327128   5.660358   2.769043
     9  O    2.940809   3.369645   3.432149   3.577360   1.251378
    10  O    2.917576   3.436969   3.047632   4.230157   1.255177
    11  Cl   2.372521   3.250357   4.287279   3.115021   3.251854
    12  N    2.104955   2.991243   3.101877   4.207008   3.003216
    13  O    2.872415   3.015800   3.043577   4.237068   4.013380
    14  O    2.896484   4.203916   4.341710   5.389014   3.649414
    15  Br   2.497423   3.274488   4.326062   3.873488   4.631396
                    6          7          8          9         10
     6  N    0.000000
     7  O    1.250760   0.000000
     8  O    1.260265   2.060515   0.000000
     9  O    3.835290   4.417321   3.676198   0.000000
    10  O    3.748980   4.784328   3.383342   2.058056   0.000000
    11  Cl   3.108547   2.923260   3.889494   3.191945   4.444212
    12  N    3.001891   4.156323   3.380993   4.154236   2.912478
    13  O    4.064611   5.115173   4.594959   5.045458   3.835200
    14  O    2.881127   4.050374   3.074316   4.886848   3.526380
    15  Br   3.312232   3.574872   4.503984   5.346383   5.306064
                   11         12         13         14         15
    11  Cl   0.000000
    12  N    4.476030   0.000000
    13  O    5.132620   1.253646   0.000000
    14  O    5.148610   1.256325   2.074795   0.000000
    15  Br   3.396593   3.242008   3.243874   3.738835   0.000000
 Stoichiometry    BrClN4O8Pt(2-)
 Framework group  C1[X(BrClN4O8Pt)]
 Deg. of freedom    39
 Full point group                 C1      NOp   1
 Largest Abelian subgroup         C1      NOp   1
 Largest concise Abelian subgroup C1      NOp   1
                         Standard orientation:                         
 ---------------------------------------------------------------------
 Center     Atomic      Atomic             Coordinates (Angstroms)
 Number     Number       Type             X           Y           Z
 ---------------------------------------------------------------------
      1         78           0       -0.107352    0.045942   -0.034823
      2          7           0       -0.427844   -2.031456   -0.441411
      3          8           0       -1.312796   -2.594113    0.251249
      4          8           0       -0.554311   -2.413350   -1.624220
      5          7           0       -2.210112    0.392044    0.079416
      6          7           0        0.170846    2.100472    0.352194
      7          8           0        0.668695    2.781837   -0.571001
      8          8           0       -0.842364    2.680960    0.826227
      9          8           0       -2.898113    0.203478   -0.948711
     10          8           0       -2.797436   -0.067803    1.088902
     11         17           0       -0.052872    0.574880   -2.346989
     12          7           0       -0.057607   -0.381133    2.025752
     13          8           0        0.565122   -1.422687    2.340399
     14          8           0        0.221996    0.572566    2.794279
     15         35           0        2.358256   -0.338373   -0.135819
 ---------------------------------------------------------------------
 Rotational constants (GHZ):      0.4268937      0.3635296      0.3482576
 Basis read from rwf:  (5D, 7F)
 Pseudo-potential data read from rwf file.
 There are   258 symmetry adapted cartesian basis functions of A   symmetry.
 There are   240 symmetry adapted basis functions of A   symmetry.
   240 basis functions,   460 primitive gaussians,   258 cartesian basis functions
    82 alpha electrons       82 beta electrons
       nuclear repulsion energy      1979.6976823369 Hartrees.
 NAtoms=   15 NActive=   15 NUniq=   15 SFac= 1.00D+00 NAtFMM=   60 NAOKFM=F Big=F
 Integral buffers will be    131072 words long.
 Raffenetti 2 integral format.
 Two-electron integral symmetry is turned on.
 ------------------------------------------------------------------------------
 Polarizable Continuum Model (PCM)
 =================================
 Model                : PCM (using non-symmetric T matrix).
 Atomic radii         : UFF (Universal Force Field).
 Polarization charges : Total charges.
 Charge compensation  : None.
 Solution method      : On-the-fly selection.
 Cavity type          : Scaled VdW (van der Waals Surface) (Alpha=1.100).
 Cavity algorithm     : GePol (No added spheres)
                        Default sphere list used, NSphG=   15.
                        Lebedev-Laikov grids with approx.  5.0 points / Ang**2.
                        Smoothing algorithm: Karplus/York (Gamma=1.0000).
                        Polarization charges: spherical gaussians, with
                                              point-specific exponents (IZeta= 3).
                        Self-potential: point-specific (ISelfS= 7).
                        Self-field    : sphere-specific E.n sum rule (ISelfD= 2).
 1st derivatives      : Analytical E(r).r(x)/FMM algorithm (CHGder, D1EAlg=3).
                        Cavity 1st derivative terms included.
 Solvent              : Water, Eps=  78.355300 Eps(inf)=   1.777849
 ------------------------------------------------------------------------------
 Spheres list:
 ISph  on   Nord     Re0    Alpha      Xe            Ye            Ze
    1  Pt      1    1.3770  1.100     -0.107352      0.045942     -0.034823
    2   N      2    1.8300  1.100     -0.427844     -2.031456     -0.441411
    3   O      3    1.7500  1.100     -1.312796     -2.594113      0.251249
    4   O      4    1.7500  1.100     -0.554311     -2.413350     -1.624220
    5   N      5    1.8300  1.100     -2.210112      0.392044      0.079416
    6   N      6    1.8300  1.100      0.170846      2.100472      0.352194
    7   O      7    1.7500  1.100      0.668695      2.781837     -0.571001
    8   O      8    1.7500  1.100     -0.842364      2.680960      0.826227
    9   O      9    1.7500  1.100     -2.898113      0.203478     -0.948711
   10   O     10    1.7500  1.100     -2.797436     -0.067803      1.088902
   11  Cl     11    1.9735  1.100     -0.052872      0.574880     -2.346989
   12   N     12    1.8300  1.100     -0.057607     -0.381133      2.025752
   13   O     13    1.7500  1.100      0.565122     -1.422687      2.340399
   14   O     14    1.7500  1.100      0.221996      0.572566      2.794279
   15  Br     15    2.0945  1.100      2.358256     -0.338373     -0.135819
 ------------------------------------------------------------------------------
 One-electron integrals computed using PRISM.
   1 Symmetry operations used in ECPInt.
 ECPInt:  NShTT=    5050 NPrTT=   21966 LenC2=    4723 LenP2D=   14386.
 LDataN:  DoStor=T MaxTD1= 6 Len=  172
 NBasis=   240 RedAO= T EigKep=  3.46D-03  NBF=   240
 NBsUse=   240 1.00D-06 EigRej= -1.00D+00 NBFU=   240
 Defaulting to unpruned grid for atomic number  78.
 Initial guess from the checkpoint file:  "/home/scr/diego/Gau-15735.chk"
 B after Tr=     0.000000    0.000000    0.000000
         Rot=    0.997679    0.038534    0.042477   -0.036702 Ang=   7.81 deg.
 ExpMin= 2.90D-02 ExpMax= 1.13D+05 ExpMxC= 1.70D+04 IAcc=3 IRadAn=         5 AccDes= 0.00D+00
 Harris functional with IExCor=  402 and IRadAn=       5 diagonalized for initial guess.
 HarFok:  IExCor=  402 AccDes= 0.00D+00 IRadAn=         5 IDoV= 1 UseB2=F ITyADJ=14
 ICtDFT=  3500011 ScaDFX=  1.000000  1.000000  1.000000  1.000000
 Defaulting to unpruned grid for atomic number  78.
[...]
   A12        1.48883  -0.00006   0.00000  -0.00128  -0.00128   1.48755
   A13        2.03515  -0.00017   0.00000  -0.00103  -0.00103   2.03412
   A14        2.09797  -0.00004   0.00000   0.00016   0.00016   2.09813
   A15        2.14935   0.00021   0.00000   0.00092   0.00092   2.15027
   A16        2.09256   0.00013   0.00000   0.00158   0.00158   2.09413
   A17        2.02161  -0.00033   0.00000  -0.00217  -0.00217   2.01944
   A18        2.16896   0.00020   0.00000   0.00059   0.00059   2.16956
   A19        2.11094  -0.00002   0.00000  -0.00110  -0.00110   2.10984
   A20        2.02526  -0.00012   0.00000   0.00049   0.00049   2.02575
   A21        2.14636   0.00014   0.00000   0.00051   0.00051   2.14686
   A22        2.06348   0.00014   0.00000   0.00099   0.00099   2.06447
   A23        2.05070  -0.00029   0.00000  -0.00088  -0.00088   2.04982
   A24        2.16885   0.00015   0.00000  -0.00012  -0.00012   2.16874
   A25        3.06380  -0.00009   0.00000  -0.00055  -0.00055   3.06325
   A26        3.11890   0.00013   0.00000   0.00204   0.00204   3.12094
   A27        3.16788   0.00005   0.00000  -0.00050  -0.00050   3.16738
   A28        3.18881   0.00013   0.00000   0.00277   0.00277   3.19157
   A29        3.22942   0.00012   0.00000   0.00216   0.00216   3.23158
   A30        3.10336  -0.00001   0.00000   0.00067   0.00067   3.10403
    D1       -0.56675   0.00002   0.00000   0.00129   0.00129  -0.56546
    D2        2.53560   0.00009   0.00000   0.00265   0.00264   2.53824
    D3       -2.18219  -0.00005   0.00000   0.00094   0.00094  -2.18125
    D4        0.92016   0.00002   0.00000   0.00229   0.00229   0.92246
    D5        0.99764  -0.00004   0.00000   0.00027   0.00028   0.99791
    D6       -2.18320   0.00002   0.00000   0.00162   0.00163  -2.18157
    D7        2.48701  -0.00010   0.00000  -0.00087  -0.00087   2.48615
    D8       -0.69382  -0.00003   0.00000   0.00049   0.00048  -0.69334
    D9        2.88012   0.00007   0.00000   0.00063   0.00063   2.88075
   D10       -0.33367  -0.00005   0.00000  -0.00377  -0.00377  -0.33744
   D11       -0.34542   0.00006   0.00000   0.00063   0.00063  -0.34479
   D12        2.72397  -0.00006   0.00000  -0.00376  -0.00376   2.72021
   D13       -1.52474   0.00025   0.00000   0.00238   0.00238  -1.52236
   D14        1.60655   0.00021   0.00000   0.00196   0.00195   1.60850
   D15        1.56964   0.00011   0.00000  -0.00039  -0.00039   1.56925
   D16       -1.58226   0.00007   0.00000  -0.00081  -0.00081  -1.58307
   D17        0.04951  -0.00009   0.00000  -0.00370  -0.00370   0.04581
   D18       -3.10239  -0.00013   0.00000  -0.00413  -0.00413  -3.10651
   D19       -3.11636  -0.00015   0.00000  -0.00334  -0.00334  -3.11970
   D20        0.01493  -0.00019   0.00000  -0.00377  -0.00377   0.01116
   D21       -2.87620  -0.00004   0.00000  -0.00216  -0.00216  -2.87836
   D22        0.22862  -0.00009   0.00000  -0.00519  -0.00519   0.22343
   D23       -1.25917   0.00002   0.00000  -0.00206  -0.00206  -1.26122
   D24        1.84565  -0.00002   0.00000  -0.00509  -0.00509   1.84056
   D25        1.84221   0.00001   0.00000  -0.00136  -0.00136   1.84085
   D26       -1.33616  -0.00004   0.00000  -0.00439  -0.00439  -1.34055
   D27        0.35214   0.00008   0.00000   0.00003   0.00004   0.35218
   D28       -2.82623   0.00004   0.00000  -0.00300  -0.00300  -2.82923
   D29        0.25398  -0.00001   0.00000  -0.01173  -0.01173   0.24225
   D30       -2.90550  -0.00006   0.00000  -0.01231  -0.01231  -2.91781
   D31        1.77280   0.00016   0.00000  -0.00884  -0.00885   1.76396
   D32       -1.38668   0.00011   0.00000  -0.00943  -0.00943  -1.39610
   D33       -2.96568  -0.00010   0.00000  -0.01233  -0.01233  -2.97801
   D34        0.15803  -0.00015   0.00000  -0.01292  -0.01292   0.14511
   D35       -1.34439   0.00007   0.00000  -0.01033  -0.01033  -1.35472
   D36        1.77932   0.00001   0.00000  -0.01092  -0.01091   1.76840
         Item               Value     Threshold  Converged?
 Maximum Force            0.000447     0.000450     YES
 RMS     Force            0.000158     0.000300     YES
 Maximum Displacement     0.022034     0.001800     NO 
 RMS     Displacement     0.006082     0.001200     NO 
 Predicted change in Energy=-1.043867D-05
 GradGradGradGradGradGradGradGradGradGradGradGradGradGradGradGradGradGrad

 1\1\GINC-NEQC17\Freq\RB3LYP\Gen\Br1Cl1N4O8Pt1(2-)\DIEGO\18-Aug-2021\0\
 \#N Geom=AllCheck Guess=TCheck SCRF=Check GenChk RB3LYP/ChkBas Freq\\E
 strutura 64\\-2,1\Pt,-0.263644122,0.3676063971,0.1550709615\N,1.866811
 3789,0.3743317122,0.1108220027\O,2.3972261542,1.2117897851,-0.60585218
 96\O,2.4958562269,-0.3998528465,0.8070669523\N,-0.1658957542,2.4747762
 726,-0.1317930077\N,-2.3889315439,0.5387434844,0.2768684968\O,-3.06547
 47909,-0.3701039478,0.72049245\O,-2.8635299048,1.6073364896,-0.0849469
 122\O,-0.0687109689,3.210792215,0.825876356\O,-0.2027093023,2.85479417
 62,-1.287067012\Cl,-0.2277612276,0.5873059231,2.5977676923\N,-0.349112
 9141,0.0995595779,-1.9261393932\O,0.6641095173,-0.2399262878,-2.503811
 1925\O,-1.421410971,0.2776034188,-2.4716436621\Br,-0.3288324877,-2.233
 2627198,0.2775301277\\Version=EM64L-G09RevD.01\State=1-A\HF=-3973.3393
 885\RMSD=8.260e-09\RMSF=2.114e-04\ZeroPoint=0.0494522\Thermal=0.066794
 6\Dipole=0.0171929,-0.4940426,-0.2994432\DipoleDeriv=1.0629218,0.00744
 36,-0.0576449,0.022546,1.1383478,0.1115326,-0.0486867,0.2340116,0.8971
 367,2.3849288,-0.0612821,0.1123974,0.0336136,1.4184105,-0.8930193,0.08
 17697,-0.8966132,1.1159827,-1.686988,-0.3069306,0.2778459,-0.4613942,-
 0.8073185,0.4535377,0.2883032,0.4088687,-0.6470207,-1.8468091,0.433653
 4,-0.3773965,0.3668623,-0.8032988,0.4057879,-0.3779502,0.4442009,-0.68
 86441,0.3901854,0.1764885,0.1059841,0.1495988,3.1929136,0.118938,0.099
 2309,-0.1360996,2.2314111,2.3395385,0.0162432,-0.2683004,-0.0918934,1.
 9510618,-0.5839981,-0.2807317,-0.6152862,0.6339121,-1.8917709,-0.44878
 62,0.3589197,-0.3789758,-0.9995683,0.3008054,0.3554171,0.3273302,-0.47
 70409,-1.6171674,0.4488164,-0.0155681,0.5840661,-1.1371713,0.2527709,-
 0.0075823,0.2392925,-0.3892748,-0.3034611,-0.1665265,-0.0799164,-0.116
 9378,-2.2255021,-0.4895706,-0.0680119,-0.5446778,-1.058448,-0.2590445,
 -0.0596224,-0.020739,-0.0564862,-1.7489965,0.3998458,-0.0187514,0.7638
 35,-1.2513736,-0.2621836,-0.0072321,0.0006525,0.0028792,-0.2462127,-0.
 1166496,-0.0150427,-0.1156,-1.5206559,2.1015247,-0.3810192,0.1046516,-
 0.380459,0.595533,0.3939781,0.072198,0.3338006,2.8247994,-1.0483532,0.
 2929581,0.4898702,0.2754476,-0.4312378,-0.3707063,0.3964332,-0.3299073
 ,-1.7378981,-1.1522444,0.0727708,-0.6248194,0.0949413,-0.3294491,-0.11
 04443,-0.4688314,-0.1323157,-1.702891,-0.2110769,-0.0169748,-0.0059366
 ,-0.0438086,-1.5675117,0.1271918,-0.0077638,0.0191603,-0.2299948\Polar
 =197.2166747,-1.5247158,233.4009934,-1.0198586,-10.1307524,198.7745789
 \PG=C01 [X(Br1Cl1N4O8Pt1)]\NImag=1\\0.23790724,-0.00543525,0.27168547,
 0.00068448,-0.02123614,0.30410291,-0.07179230,0.00044876,0.00934302,0.
 58469215,-0.00545469,-0.04910728,-0.01154053,-0.02035184,0.56587475,0.
 00478585,-0.01332993,-0.04985606,0.02557482,-0.37152634,0.47220727,-0.
 00314022,-0.01764742,0.01481727,-0.23597060,-0.15615929,0.13150056,0.1
 9813639,0.00055818,0.00146916,0.01048851,-0.14960718,-0.27194917,0.192
 73609,0.15379214,0.34725683,0.00181534,0.01136462,0.00601397,0.1284778
 0,0.19714022,-0.21619418,-0.13237039,-0.28388814,0.26785176,0.00086979
 ,0.01827008,-0.01720874,-0.28105854,0.17109458,-0.15534026,0.05420834,
 0.00036368,0.00034372,0.23822948,0.00234679,0.00212775,0.01076509,0.16
 692575,-0.25644343,0.18793377,0.01621133,-0.07599012,0.08050728,-0.184
 53541,0.33002486,-0.00126478,0.01118847,0.00407688,-0.15271521,0.18820
 891,-0.21646382,-0.01315015,0.08165027,-0.05296791,0.16847625,-0.27629
 887,0.26563170,-0.04494345,0.00141260,0.00086244,-0.00286712,0.0074999
 7,-0.00111978,-0.00276016,0.00068704,0.00065018,-0.00068836,-0.0011231
 4,0.00046178,0.16259481,0.00063965,-0.06058453,0.00455728,0.02536895,-
 0.00288851,-0.00069774,-0.00741144,-0.00462946,0.00290086,-0.00803633,
 0.00178263,-0.00149886,0.02746761,0.56605328,0.00079774,0.01168628,-0.
 02977967,-0.00434075,-0.00343685,0.00402163,-0.00002425,0.00377612,-0.
 00350563,0.00039585,0.00147542,-0.00134311,0.04448566,0.07447205,0.914
 69430,-0.07152508,0.00141841,-0.00725791,0.00867543,0.00392674,0.00069
 296,0.00657400,0.00168250,-0.00152474,0.00650160,-0.00244777,0.0015422
 1,-0.00456293,-0.02408367,0.00338500,0.58387095,0.00900968,-0.03999405
 ,-0.00612694,-0.00314672,0.01925976,0.00324547,0.00170899,-0.00277937,
 -0.00158126,-0.00431390,-0.00173927,-0.00229114,-0.00825818,0.00142904
 ,-0.00296980,0.02542260,0.77803353,-0.00300095,-0.00618776,-0.05661824
 ,0.00102307,0.00299234,0.02204238,-0.00457416,-0.00282249,-0.00251225,
 0.00177810,-0.00149873,-0.00316145,0.00186306,0.00150653,0.00151669,-0
 .06289365,-0.25572477,0.25545453,0.00135031,-0.02111175,0.01194487,0.0
 0663189,0.00463177,-0.00109001,-0.00960790,-0.00489426,0.00304118,-0.0
 1294547,0.00353220,-0.00394842,-0.00001968,0.00809501,-0.00014645,-0.3
 0121237,-0.20837448,0.11315638,0.26290701,-0.00142765,-0.00229727,0.00
 690079,0.00210708,-0.00126956,-0.00096913,-0.00331513,-0.00110702,0.00
 120099,-0.00376834,0.00176496,-0.00106029,0.00175384,0.00099436,0.0013
 2737,-0.20370606,-0.33403531,0.13833241,0.23262985,0.45822471,0.001905
 06,0.00868618,0.00952286,-0.00178048,-0.00198962,-0.00380913,0.0029958
 5,0.00165821,-0.00021050,0.00290626,-0.00059995,0.00172689,-0.00057622
 ,-0.00122099,-0.00018147,0.11244388,0.14019350,-0.11691684,-0.12308319
 ,-0.20202105,0.11495556,-0.00262849,0.02222456,-0.00641573,0.00655397,
 -0.00372951,0.00137473,-0.00985240,-0.00378540,0.00290949,-0.00891342,
 0.00338303,-0.00277681,-0.00403767,0.00677834,0.00049288,-0.21550308,0
 .18596562,-0.05204305,0.05263445,-0.02977369,0.00745349,0.17824409,-0.
 00003190,-0.00783337,0.00734864,-0.00275272,-0.00106362,-0.00175922,0.
 00595795,0.00317875,-0.00170035,0.00602060,-0.00163584,0.00211609,-0.0
 0049263,-0.00703873,0.00279654,0.17825088,-0.41434864,0.12279029,-0.01
 028088,-0.12273494,0.05642086,-0.17401601,0.54290671,0.00031616,0.0054
 9564,0.01309993,-0.00029556,-0.00122837,-0.00413325,-0.00012589,0.0001
 1304,0.00098529,-0.00111900,0.00059297,0.00039546,-0.00049636,0.001195
 62,-0.00294690,-0.05063349,0.12583940,-0.09061037,0.00005501,0.0577878
 9,-0.00507439,0.05074722,-0.18693894,0.08703614,0.01215895,-0.00139444
 ,-0.00212232,-0.00000040,-0.00042098,-0.00043529,0.00018809,-0.0000947
 5,0.00015946,0.00016273,0.00005841,0.00015485,-0.05555427,-0.02870496,
 -0.03165159,0.00101961,0.00089844,0.00009931,-0.00027750,-0.00029590,0
 .00008408,-0.00032836,-0.00015030,-0.00030679,0.02312910,-0.00229477,-
 0.00813885,-0.02051433,-0.00934721,0.00027349,0.00124543,0.00431166,0.
 00222141,-0.00148960,0.00320416,-0.00033124,0.00011960,-0.03034004,-0.
 32431786,-0.24743440,0.00873369,-0.00165115,0.00008173,-0.00302541,0.0
 0024201,0.00009248,-0.00365214,0.00354955,-0.00035859,0.03187161,0.299
 91734,-0.00089833,-0.00382635,-0.00277841,-0.00217849,0.00017934,0.000
 18649,0.00160663,0.00037244,0.00006012,0.00066723,-0.00023678,0.000100
 33,-0.03227744,-0.23912959,-0.38175844,0.00211780,-0.00103819,-0.00005
 582,-0.00065407,0.00018556,-0.00011443,-0.00124044,0.00133310,0.000559
 35,0.04472927,0.28367384,0.52562426,0.01263650,-0.00080638,0.00018836,
 -0.00161968,-0.00257666,0.00179395,-0.00036383,0.00234376,-0.00155385,
 0.00066688,0.00076961,-0.00064342,-0.05353473,0.00139303,-0.01420237,-
 0.00094030,0.00294436,-0.00113502,0.00040452,-0.00095353,0.00024010,0.
 00031719,-0.00189363,0.00122935,0.01966813,0.00021815,-0.01111551,0.02
 393724,0.00020371,-0.00644042,0.02255974,-0.00724260,0.00030044,0.0006
 4894,0.00337183,0.00155142,-0.00105796,0.00256898,-0.00022945,0.000233
 06,0.00134396,-0.17973647,0.17372678,0.00733905,-0.00137964,0.00007342
 ,-0.00266348,0.00022068,0.00022175,-0.00321039,0.00296435,-0.00071820,
 -0.00103555,0.04412157,-0.04470754,-0.00007228,0.15257342,-0.00101501,
 0.00322040,-0.01117850,0.00526079,0.00278700,-0.00335239,-0.00127597,-
 0.00338876,0.00271493,-0.00103561,-0.00110508,0.00100007,-0.01365682,0
 .16205744,-0.50632889,-0.00443312,0.00309051,-0.00123782,0.00085087,-0
 .00117011,0.00026074,0.00115750,-0.00314351,0.00197081,-0.01037917,-0.
 02129767,-0.14142979,0.02531043,-0.14979218,0.65678760,-0.01659212,0.0
 0055045,-0.00205773,-0.00376631,0.00343094,0.00131085,0.00062994,-0.00
 070878,-0.00017515,0.00250234,-0.00131166,0.00281012,-0.00022984,-0.00
 047240,-0.00056855,-0.00480581,-0.00196971,-0.00335749,0.00082903,0.00
 141777,-0.00146439,0.00105064,-0.00023978,0.00061081,0.00106258,0.0002
 7286,-0.00030322,0.00003127,0.00007567,0.00021475,0.01141804,0.0000756
 5,-0.01470915,-0.00618325,0.00074184,-0.00081219,0.00089039,-0.0000576
 8,0.00038210,-0.00033856,0.00017030,0.00097089,-0.00178141,-0.00048358
 ,-0.00624791,-0.00317559,-0.00026062,-0.00122943,0.00074371,-0.0004988
 7,0.00036133,-0.00079391,-0.00001639,0.00061846,-0.00016454,0.00046541
 ,-0.00042275,0.00698735,0.00015192,0.00120065,0.00169222,0.00043526,0.
 01543503,-0.00231516,-0.00782707,-0.08132653,0.00067791,-0.00002122,-0
 .00147688,0.00019312,-0.00030309,0.00056818,0.00004322,-0.00029208,0.0
 0126706,0.00007564,0.00221284,-0.00012518,-0.00168145,0.00013968,-0.00
 278972,-0.00026474,0.00069432,-0.00031420,-0.00013480,-0.00058188,0.00
 055743,-0.00072767,0.00187368,-0.00131141,0.00008069,0.00010362,0.0006
 4606,0.00390192,0.00632763,0.08961903,-0.03129718,-0.00546046,-0.00174
 641,-0.00242902,0.00553610,-0.01077987,-0.00012220,-0.00155907,0.00649
 987,-0.00015556,-0.00162784,0.00075190,-0.00027671,-0.00298535,0.00420
 647,-0.00063452,-0.00531605,0.00766057,-0.00076146,0.00081646,0.000167
 58,-0.00084001,0.00300673,-0.00479676,0.00064570,0.00065373,-0.0012294
 5,-0.00192550,0.00021913,-0.00381806,0.00766844,0.00049278,0.00178401,
 0.88462872,-0.00513330,-0.04902184,0.00276829,-0.00473918,-0.00151551,
 0.00123390,0.00186772,0.00085727,-0.00217777,0.00171627,0.00005360,0.0
 0030035,-0.00113660,-0.00878743,-0.01093341,0.00355692,0.00157635,-0.0
 0105331,-0.00095552,-0.00070210,-0.00021585,-0.00078918,-0.00054042,0.
 00112512,0.00008494,0.00118468,0.00230651,0.00046407,-0.00179113,-0.00
 069427,0.00025394,0.00847798,0.00297645,-0.17864431,0.21601955,0.00076
 651,0.00584481,-0.07487591,-0.02332202,-0.00363481,-0.00053920,0.00757
 916,0.00285689,-0.00499390,0.00778310,-0.00099505,0.00193710,-0.001302
 88,-0.02634017,0.00423753,0.02249781,-0.00470886,-0.00397315,-0.008151
 28,-0.00153587,0.00237889,-0.00769887,0.00453173,-0.00238206,0.0008251
 2,0.00917862,0.00077071,-0.00045402,0.00794445,-0.00816893,-0.00041608
 ,0.00042183,0.02190439,0.00643224,0.05907312,0.55874063,-0.00483495,0.
 00532242,0.00465488,-0.00540926,-0.00591307,0.00265564,0.00192802,0.00
 148303,-0.00699546,0.00150342,0.00129576,0.00000021,-0.00030147,-0.003
 30420,0.00085945,0.00197815,0.00197398,-0.00129893,-0.00016119,-0.0003
 7253,-0.00012810,0.00000495,-0.00105109,0.00156786,-0.00014931,0.00103
 099,-0.00008270,0.00115940,0.00136812,-0.00148570,-0.00028230,0.000238
 71,0.00632478,-0.40803167,0.11866580,0.19919334,0.54827130,0.00780354,
 0.01033029,-0.00466931,0.00145080,-0.00068973,0.00104674,-0.00146311,-
 0.00058688,-0.00163772,-0.00121042,0.00069742,-0.00101508,-0.00002807,
 0.00312787,0.00061397,-0.00206083,-0.00022488,0.00007556,0.00069591,0.
 00021210,0.00008821,0.00071221,-0.00011355,-0.00024127,0.00000263,-0.0
 0075051,-0.00015890,-0.00008814,-0.00109405,0.00089685,-0.00067986,-0.
 00177943,-0.00405734,0.11844652,-0.09550363,-0.07848220,-0.16085237,0.
 07502624,0.02202292,-0.00974721,-0.00686710,0.00766970,0.00046978,-0.0
 0172200,-0.00453931,-0.00204524,0.00106786,-0.00370077,0.00031774,-0.0
 0100430,0.00076874,0.00935538,-0.00206383,-0.00736604,0.00057670,0.000
 25148,0.00280521,0.00058578,-0.00048367,0.00261652,-0.00099528,0.00036
 572,-0.00028327,-0.00355030,0.00004801,-0.00056891,-0.00392736,0.00368
 416,-0.00189857,-0.00068581,-0.01435393,0.20894811,-0.08212534,-0.2517
 3971,-0.22000955,0.08504391,0.22146758,-0.00783917,0.00357797,-0.00563
 721,0.00240839,-0.00199937,0.00167448,-0.00038356,0.00037925,-0.002059
 81,-0.00045938,0.00062637,0.00000021,-0.00014169,0.00535778,-0.0035850
 3,-0.00506764,0.00552314,0.00063388,0.00222724,-0.00032818,-0.00106253
 ,0.00267506,-0.00360609,0.00386122,-0.00027857,-0.00148170,0.00091660,
 0.00100961,-0.00199334,0.00400152,-0.00011812,-0.00111795,-0.00794985,
 -0.44509392,0.06418100,-0.20391920,-0.13628708,0.03798997,-0.00717815,
 0.58665387,0.00156939,0.01311618,-0.00206798,0.00113802,0.00101470,-0.
 00075216,-0.00077753,-0.00045238,0.00099146,-0.00047097,-0.00020239,0.
 00006529,0.00064199,-0.00034416,0.00450233,0.00043533,-0.00228388,0.00
 092168,0.00020937,0.00081110,-0.00026387,-0.00043874,0.00136613,-0.002
 17944,0.00000006,-0.00012701,-0.00146960,-0.00154344,-0.00063153,-0.00
 256030,-0.00005036,-0.00166078,-0.00041165,0.06628755,-0.06616705,0.02
 320156,0.03956244,0.01119498,0.00625559,-0.10655010,0.04385330,-0.0246
 0512,0.00116009,-0.00786200,0.00720822,0.00036165,-0.00054205,-0.00269
 339,-0.00079781,0.00081349,-0.00281699,0.00054519,-0.00038769,0.000289
 89,0.00984896,-0.00243358,-0.00758141,0.00049031,-0.00109894,0.0040697
 5,0.00100338,-0.00121174,0.00372422,-0.00189774,0.00003924,-0.00033922
 ,-0.00350900,0.00028975,0.00085750,-0.00398727,0.00456010,0.00188423,-
 0.00151881,-0.01373853,-0.21548039,0.02371686,-0.23761475,0.01580704,0
 .00068041,0.05041795,0.21974981,-0.02622980,0.20736894,-0.01032984,-0.
 00136954,-0.00004930,-0.00404860,0.00048532,-0.00259862,0.00053607,-0.
 00064013,0.00078236,-0.00042385,-0.00410342,0.00030126,0.00732328,-0.0
 0010201,-0.00010404,-0.00436801,-0.00206775,0.00208887,-0.00199888,0.0
 0521601,-0.00010139,0.00062308,0.00127887,-0.00061378,-0.00144650,-0.0
 0015558,-0.00005789,-0.00144669,-0.00027282,0.00030360,0.00060222,-0.0
 0033677,-0.00000760,-0.00137512,0.00060742,0.00018708,0.00061198,-0.00
 071877,0.00071336,0.00069495,-0.00001301,-0.00007415,0.01504591,-0.002
 42905,-0.06060209,0.00695014,-0.00099376,-0.00098413,0.00005380,-0.000
 39000,0.00057744,-0.00023408,-0.00107328,-0.00085035,0.00006361,0.0010
 5524,0.02118790,-0.00642683,0.00179284,-0.00063306,-0.00023061,0.00201
 055,-0.00068505,-0.00025595,0.00034768,0.00072515,-0.00032029,-0.00128
 461,-0.01577068,-0.00447119,-0.00035082,-0.01162984,0.00940747,-0.0010
 0434,-0.00058479,-0.00083387,0.00013408,-0.00414034,0.00264396,0.00055
 202,0.00015377,0.00047166,-0.00055875,0.00051282,0.00013359,0.00219218
 ,0.07272325,0.00000529,0.00350797,-0.01567414,-0.00060281,0.00123852,-
 0.00036881,0.00006089,-0.00040604,0.00030878,-0.00117237,-0.00111090,-
 0.00080722,-0.00002791,0.00078039,0.00599652,0.00069215,0.00086539,-0.
 00029049,0.00141489,-0.00126204,-0.00052856,-0.00016635,-0.00032031,0.
 00013761,0.00019323,0.00188851,-0.00019073,-0.00002728,-0.00132126,0.0
 0007185,-0.00049150,-0.00242125,0.00087422,0.00140020,0.00369935,-0.00
 568164,-0.00106275,0.00181617,0.00093177,0.00055406,-0.00000309,0.0013
 9980,-0.00076974,-0.00695140,0.01382103\\-0.00040755,0.00013186,0.0002
 2537,-0.00023898,-0.00044036,-0.00022412,0.00026795,0.00016018,-0.0000
 6962,-0.00003388,0.00020064,-0.00016241,0.00028913,-0.00026605,-0.0002
 9532,0.00060330,-0.00016202,0.00038011,-0.00016176,-0.00010551,-0.0000
 2397,-0.00020093,0.00018329,-0.00013068,-0.00001269,0.00010926,0.00011
 215,0.00001379,0.00018812,0.00020259,-0.00013370,0.00003139,0.00035731
 ,0.00007796,-0.00012503,-0.00027550,-0.00005694,0.00007259,0.00000078,
 0.00004616,0.00002631,-0.00018170,-0.00005188,-0.00000466,0.00008499\\
 \@


 I WANT IT ALL - RICH, THIN, AND CHOCOLATE.
 Job cpu time:       0 days  0 hours 31 minutes 37.3 seconds.
 File lengths (MBytes):  RWF=    202 Int=      0 D2E=      0 Chk=     10 Scr=      1
 Normal termination of Gaussian 09 at Wed Aug 18 16:26:38 2021.
