 Entering Gaussian System, Link 0=g09
 Input=estrutura66_D2O.com
 Output=estrutura66_D2O.log
 Initial command:
 /scr/programs/g09/l1.exe /scr/guest/Gau-18944.inp -scrdir=/scr/guest/
 Entering Link 1 = /scr/programs/g09/l1.exe PID=     18945.
  
 Copyright (c) 1988,1990,1992,1993,1995,1998,2003,2009, Gaussian, Inc.
                  All Rights Reserved.
  
 This is part of the Gaussian(R) 09 program.  It is based on
 the Gaussian(R) 03 system (copyright 2003, Gaussian, Inc.),
 the Gaussian(R) 98 system (copyright 1998, Gaussian, Inc.),
 the Gaussian(R) 94 system (copyright 1995, Gaussian, Inc.),
 the Gaussian 92(TM) system (copyright 1992, Gaussian, Inc.),
 the Gaussian 90(TM) system (copyright 1990, Gaussian, Inc.),
 the Gaussian 88(TM) system (copyright 1988, Gaussian, Inc.),
 the Gaussian 86(TM) system (copyright 1986, Carnegie Mellon
 University), and the Gaussian 82(TM) system (copyright 1983,
 Carnegie Mellon University). Gaussian is a federally registered
 trademark of Gaussian, Inc.
  
 This software contains proprietary and confidential information,
 including trade secrets, belonging to Gaussian, Inc.
  
 This software is provided under written license and may be
 used, copied, transmitted, or stored only in accord with that
 written license.
  
 The following legend is applicable only to US Government
 contracts under FAR:
  
                    RESTRICTED RIGHTS LEGEND
  
 Use, reproduction and disclosure by the US Government is
 subject to restrictions as set forth in subparagraphs (a)
 and (c) of the Commercial Computer Software - Restricted
 Rights clause in FAR 52.227-19.
  
 Gaussian, Inc.
 340 Quinnipiac St., Bldg. 40, Wallingford CT 06492
  
  
 ---------------------------------------------------------------
 Warning -- This program may not be used in any manner that
 competes with the business of Gaussian, Inc. or will provide
 assistance to any competitor of Gaussian, Inc.  The licensee
 of this program is prohibited from giving any competitor of
 Gaussian, Inc. access to this program.  By using this program,
 the user acknowledges that Gaussian, Inc. is engaged in the
 business of creating and licensing software in the field of
 computational chemistry and represents and warrants to the
 licensee that it is not a competitor of Gaussian, Inc. and that
 it will not use this program in any manner prohibited above.
 ---------------------------------------------------------------
  

 Cite this work as:
 Gaussian 09, Revision A.02,
 M. J. Frisch, G. W. Trucks, H. B. Schlegel, G. E. Scuseria, 
 M. A. Robb, J. R. Cheeseman, G. Scalmani, V. Barone, B. Mennucci, 
 G. A. Petersson, H. Nakatsuji, M. Caricato, X. Li, H. P. Hratchian, 
 A. F. Izmaylov, J. Bloino, G. Zheng, J. L. Sonnenberg, M. Hada, 
 M. Ehara, K. Toyota, R. Fukuda, J. Hasegawa, M. Ishida, T. Nakajima, 
 Y. Honda, O. Kitao, H. Nakai, T. Vreven, J. A. Montgomery, Jr., 
 J. E. Peralta, F. Ogliaro, M. Bearpark, J. J. Heyd, E. Brothers, 
 K. N. Kudin, V. N. Staroverov, R. Kobayashi, J. Normand, 
 K. Raghavachari, A. Rendell, J. C. Burant, S. S. Iyengar, J. Tomasi, 
 M. Cossi, N. Rega, J. M. Millam, M. Klene, J. E. Knox, J. B. Cross, 
 V. Bakken, C. Adamo, J. Jaramillo, R. Gomperts, R. E. Stratmann, 
 O. Yazyev, A. J. Austin, R. Cammi, C. Pomelli, J. W. Ochterski, 
 R. L. Martin, K. Morokuma, V. G. Zakrzewski, G. A. Voth, 
 P. Salvador, J. J. Dannenberg, S. Dapprich, A. D. Daniels, 
 O. Farkas, J. B. Foresman, J. V. Ortiz, J. Cioslowski, 
 and D. J. Fox, Gaussian, Inc., Wallingford CT, 2009.
 
 ******************************************
 Gaussian 09:  EM64L-G09RevA.02 11-Jun-2009
                 1-Dec-2021 
 ******************************************
 %mem=30gb
 %nproc=24
 Will use up to   24 processors via shared memory.
 ------------------------------------------------------------
 #b3lyp/gen pseudo=read opt freq=noraman scrf=(solvent=water)
 ------------------------------------------------------------
 1/14=-1,18=20,19=15,26=3,38=1/1,3;
 2/9=110,12=2,17=6,18=5,40=1/2;
 3/5=7,11=2,16=1,17=8,25=1,30=1,70=2201,71=1,72=1,74=-5/1,2,3;
 4//1;
 5/5=2,38=5,53=1/2;
 6/7=2,8=2,9=2,10=2,28=1/1;
 7//1,2,3,16;
 1/14=-1,18=20,19=15/3(2);
 2/9=110/2;
 99//99;
 2/9=110/2;
 3/5=7,6=1,11=2,16=1,17=8,25=1,30=1,70=2205,71=1,72=1,74=-5,82=7/1,2,3;
 4/5=5,16=3/1;
 5/5=2,38=5,53=1/2;
 7//1,2,3,16;
 1/14=-1,18=20,19=15/3(-5);
 2/9=110/2;
 6/7=2,8=2,9=2,10=2,19=2,28=1/1;
 99/9=1/99;
 ------------
 Estrutura 66
 ------------
 Symbolic Z-matrix:
 Charge = -2 Multiplicity = 1
 Pt                   -0.00606   0.02297  -0.08268 
 N                    -1.70256  -1.28164  -0.29241 
 O                    -1.8393   -2.14674   0.55988 
 O                    -2.47299  -1.13471  -1.22275 
 N                     0.06474  -0.5134    1.95009 
 N                     1.6763    1.31107   0.19337 
 O                     1.6191    2.44245  -0.25502 
 O                     2.63814   0.87486   0.80195 
 O                    -0.89809  -0.23632   2.63977 
 O                     1.05149  -1.09663   2.35264 
 N                     1.2947   -1.59421  -0.58652 
 O                     0.96614  -2.72492  -0.26758 
 O                     2.32847  -1.33828  -1.17884 
 N                    -1.28935   1.64984   0.41641 
 O                    -2.34135   1.78957  -0.18185 
 O                    -0.91807   2.39831   1.30679 
 Cl                   -0.0531    0.62272  -2.45632 
 

 GradGradGradGradGradGradGradGradGradGradGradGradGradGradGradGradGradGrad
 Berny optimization.
 Initialization pass.
                           ----------------------------
                           !    Initial Parameters    !
                           ! (Angstroms and Degrees)  !
 --------------------------                            --------------------------
 ! Name  Definition              Value          Derivative Info.                !
 --------------------------------------------------------------------------------
 ! R1    R(1,2)                  2.1504         estimate D2E/DX2                !
 ! R2    R(1,5)                  2.1035         estimate D2E/DX2                !
 ! R3    R(1,6)                  2.1368         estimate D2E/DX2                !
 ! R4    R(1,11)                 2.1357         estimate D2E/DX2                !
 ! R5    R(1,14)                 2.1313         estimate D2E/DX2                !
 ! R6    R(1,17)                 2.4487         estimate D2E/DX2                !
 ! R7    R(2,3)                  1.2221         estimate D2E/DX2                !
 ! R8    R(2,4)                  1.2168         estimate D2E/DX2                !
 ! R9    R(5,9)                  1.2163         estimate D2E/DX2                !
 ! R10   R(5,10)                 1.2149         estimate D2E/DX2                !
 ! R11   R(6,7)                  1.2183         estimate D2E/DX2                !
 ! R12   R(6,8)                  1.2189         estimate D2E/DX2                !
 ! R13   R(11,12)                1.2199         estimate D2E/DX2                !
 ! R14   R(11,13)                1.2186         estimate D2E/DX2                !
 ! R15   R(14,15)                1.2183         estimate D2E/DX2                !
 ! R16   R(14,16)                1.221          estimate D2E/DX2                !
 ! A1    A(2,1,5)               88.0577         estimate D2E/DX2                !
 ! A2    A(2,1,11)              89.8912         estimate D2E/DX2                !
 ! A3    A(2,1,14)              90.6249         estimate D2E/DX2                !
 ! A4    A(2,1,17)              92.229          estimate D2E/DX2                !
 ! A5    A(5,1,6)               90.1357         estimate D2E/DX2                !
 ! A6    A(5,1,11)              90.8253         estimate D2E/DX2                !
 ! A7    A(5,1,14)              89.347          estimate D2E/DX2                !
 ! A8    A(6,1,11)              90.4249         estimate D2E/DX2                !
 ! A9    A(6,1,14)              89.0641         estimate D2E/DX2                !
 ! A10   A(6,1,17)              89.5824         estimate D2E/DX2                !
 ! A11   A(11,1,17)             88.1939         estimate D2E/DX2                !
 ! A12   A(14,1,17)             91.6312         estimate D2E/DX2                !
 ! A13   A(1,2,3)              116.7255         estimate D2E/DX2                !
 ! A14   A(1,2,4)              120.0543         estimate D2E/DX2                !
 ! A15   A(3,2,4)              123.2194         estimate D2E/DX2                !
 ! A16   A(1,5,9)              117.595          estimate D2E/DX2                !
 ! A17   A(1,5,10)             118.0311         estimate D2E/DX2                !
 ! A18   A(9,5,10)             124.3628         estimate D2E/DX2                !
 ! A19   A(1,6,7)              118.3781         estimate D2E/DX2                !
 ! A20   A(1,6,8)              118.0379         estimate D2E/DX2                !
 ! A21   A(7,6,8)              123.5813         estimate D2E/DX2                !
 ! A22   A(1,11,12)            118.4336         estimate D2E/DX2                !
 ! A23   A(1,11,13)            118.1843         estimate D2E/DX2                !
 ! A24   A(12,11,13)           123.382          estimate D2E/DX2                !
 ! A25   A(1,14,15)            119.5048         estimate D2E/DX2                !
 ! A26   A(1,14,16)            117.1023         estimate D2E/DX2                !
 ! A27   A(15,14,16)           123.3925         estimate D2E/DX2                !
 ! D1    D(5,1,2,3)            -20.626          estimate D2E/DX2                !
 ! D2    D(5,1,2,4)            159.0579         estimate D2E/DX2                !
 ! D3    D(11,1,2,3)            70.2035         estimate D2E/DX2                !
 ! D4    D(11,1,2,4)          -110.1127         estimate D2E/DX2                !
 ! D5    D(14,1,2,3)          -109.9514         estimate D2E/DX2                !
 ! D6    D(14,1,2,4)            69.7324         estimate D2E/DX2                !
 ! D7    D(17,1,2,3)           158.3917         estimate D2E/DX2                !
 ! D8    D(17,1,2,4)           -21.9244         estimate D2E/DX2                !
 ! D9    D(3,2,6,7)           -152.3546         estimate D2E/DX2                !
 ! D10   D(3,2,6,8)             26.2411         estimate D2E/DX2                !
 ! D11   D(4,2,6,7)             26.8364         estimate D2E/DX2                !
 ! D12   D(4,2,6,8)           -154.5679         estimate D2E/DX2                !
 ! D13   D(2,1,5,9)            -62.0385         estimate D2E/DX2                !
 ! D14   D(2,1,5,10)           116.8018         estimate D2E/DX2                !
 ! D15   D(6,1,5,9)            117.6715         estimate D2E/DX2                !
 ! D16   D(6,1,5,10)           -63.4882         estimate D2E/DX2                !
 ! D17   D(11,1,5,9)          -151.9016         estimate D2E/DX2                !
 ! D18   D(11,1,5,10)           26.9387         estimate D2E/DX2                !
 ! D19   D(14,1,5,9)            28.609          estimate D2E/DX2                !
 ! D20   D(14,1,5,10)         -152.5507         estimate D2E/DX2                !
 ! D21   D(5,1,6,7)           -132.3665         estimate D2E/DX2                !
 ! D22   D(5,1,6,8)             47.0498         estimate D2E/DX2                !
 ! D23   D(11,1,6,7)           136.8072         estimate D2E/DX2                !
 ! D24   D(11,1,6,8)           -43.7765         estimate D2E/DX2                !
 ! D25   D(14,1,6,7)           -43.0218         estimate D2E/DX2                !
 ! D26   D(14,1,6,8)           136.3946         estimate D2E/DX2                !
 ! D27   D(17,1,6,7)            48.6165         estimate D2E/DX2                !
 ! D28   D(17,1,6,8)          -131.9672         estimate D2E/DX2                !
 ! D29   D(2,1,11,12)          -31.6712         estimate D2E/DX2                !
 ! D30   D(2,1,11,13)          148.3298         estimate D2E/DX2                !
 ! D31   D(5,1,11,12)           56.3848         estimate D2E/DX2                !
 ! D32   D(5,1,11,13)         -123.6142         estimate D2E/DX2                !
 ! D33   D(6,1,11,12)          146.5266         estimate D2E/DX2                !
 ! D34   D(6,1,11,13)          -33.4724         estimate D2E/DX2                !
 ! D35   D(17,1,11,12)        -123.9047         estimate D2E/DX2                !
 ! D36   D(17,1,11,13)          56.0963         estimate D2E/DX2                !
 ! D37   D(12,11,14,15)        -72.013          estimate D2E/DX2                !
 ! D38   D(12,11,14,16)        108.0125         estimate D2E/DX2                !
 ! D39   D(13,11,14,15)        108.0629         estimate D2E/DX2                !
 ! D40   D(13,11,14,16)        -71.9116         estimate D2E/DX2                !
 ! D41   D(2,1,14,15)          -40.1747         estimate D2E/DX2                !
 ! D42   D(2,1,14,16)          139.6071         estimate D2E/DX2                !
 ! D43   D(5,1,14,15)         -128.225          estimate D2E/DX2                !
 ! D44   D(5,1,14,16)           51.5568         estimate D2E/DX2                !
 ! D45   D(6,1,14,15)          141.6286         estimate D2E/DX2                !
 ! D46   D(6,1,14,16)          -38.5896         estimate D2E/DX2                !
 ! D47   D(17,1,14,15)          52.0731         estimate D2E/DX2                !
 ! D48   D(17,1,14,16)        -128.145          estimate D2E/DX2                !
 --------------------------------------------------------------------------------
 Trust Radius=3.00D-01 FncErr=1.00D-07 GrdErr=1.00D-06
 Number of steps in this run= 101 maximum allowed number of steps= 102.
 GradGradGradGradGradGradGradGradGradGradGradGradGradGradGradGradGradGrad

                          Input orientation:                          
 ---------------------------------------------------------------------
 Center     Atomic      Atomic             Coordinates (Angstroms)
 Number     Number       Type             X           Y           Z
 ---------------------------------------------------------------------
      1         78           0       -0.006055    0.022969   -0.082681
      2          7           0       -1.702564   -1.281642   -0.292414
      3          8           0       -1.839299   -2.146742    0.559881
      4          8           0       -2.472990   -1.134713   -1.222754
      5          7           0        0.064735   -0.513396    1.950091
      6          7           0        1.676301    1.311066    0.193372
      7          8           0        1.619097    2.442445   -0.255015
      8          8           0        2.638137    0.874860    0.801945
      9          8           0       -0.898091   -0.236321    2.639771
     10          8           0        1.051489   -1.096634    2.352635
     11          7           0        1.294700   -1.594213   -0.586518
     12          8           0        0.966142   -2.724923   -0.267583
     13          8           0        2.328470   -1.338276   -1.178838
     14          7           0       -1.289347    1.649836    0.416407
     15          8           0       -2.341354    1.789570   -0.181848
     16          8           0       -0.918071    2.398309    1.306794
     17         17           0       -0.053102    0.622720   -2.456315
 ---------------------------------------------------------------------
                    Distance matrix (angstroms):
                    1          2          3          4          5
     1  Pt   0.000000
     2  N    2.150381   0.000000
     3  O    2.912270   1.222089   0.000000
     4  O    2.953940   1.216831   2.145590   0.000000
     5  N    2.103535   2.956751   2.868074   4.110113   0.000000
     6  N    2.136755   4.286590   4.944715   5.020345   3.001977
     7  O    2.919706   4.990356   5.803895   5.520666   4.001941
     8  O    2.915482   4.968884   5.407042   5.853325   3.141320
     9  O    2.876579   3.215211   2.976831   4.266909   1.216332
    10  O    2.881436   3.822999   3.559965   5.020638   1.214863
    11  N    2.135672   3.027836   3.382524   3.848561   3.019166
    12  O    2.920662   3.034084   2.981525   3.907525   3.259059
    13  O    2.916257   4.127734   4.587707   4.805974   3.949066
    14  N    2.131343   3.044132   3.838885   3.441159   2.977465
    15  O    2.929904   3.138888   4.036926   3.106806   3.954501
    16  O    2.899078   4.088390   4.697236   4.615044   3.139708
    17  Cl   2.448684   3.321112   4.467422   3.235135   4.552039
                    6          7          8          9         10
     6  N    0.000000
     7  O    1.218336   0.000000
     8  O    1.218920   2.147773   0.000000
     9  O    3.873857   4.678868   4.137298   0.000000
    10  O    3.293907   4.432505   2.967976   2.150220   0.000000
    11  N    3.032242   4.063217   3.135119   4.130514   2.990879
    12  O    4.123835   5.208474   4.110705   4.256902   3.086122
    13  O    3.054062   3.956073   2.986196   5.119255   3.763027
    14  N    2.993255   3.088379   4.021736   2.941771   4.095313
    15  O    4.063411   4.014570   5.157507   3.761486   5.124955
    16  O    3.025322   2.979667   3.901587   2.952711   4.145790
    17  Cl   3.238132   3.309588   4.233509   5.236607   5.225160
                   11         12         13         14         15
    11  N    0.000000
    12  O    1.219908   0.000000
    13  O    1.218617   2.146885   0.000000
    14  N    4.266967   4.969264   4.956029   0.000000
    15  O    4.983436   5.597100   5.708298   1.218258   0.000000
    16  O    4.941783   5.681235   5.538995   1.221002   2.147639
    17  Cl   3.198047   4.127483   3.339062   3.291778   3.430865
                   16         17
    16  O    0.000000
    17  Cl   4.249927   0.000000
 Stoichiometry    ClN5O10Pt(2-)
 Framework group  C1[X(ClN5O10Pt)]
 Deg. of freedom    45
 Full point group                 C1      NOp   1
 Largest Abelian subgroup         C1      NOp   1
 Largest concise Abelian subgroup C1      NOp   1
                         Standard orientation:                         
 ---------------------------------------------------------------------
 Center     Atomic      Atomic             Coordinates (Angstroms)
 Number     Number       Type             X           Y           Z
 ---------------------------------------------------------------------
      1         78           0       -0.006055    0.022969   -0.082681
      2          7           0       -1.702562   -1.281644   -0.292414
      3          8           0       -1.839296   -2.146744    0.559881
      4          8           0       -2.472989   -1.134716   -1.222754
      5          7           0        0.064736   -0.513396    1.950091
      6          7           0        1.676300    1.311068    0.193372
      7          8           0        1.619094    2.442447   -0.255015
      8          8           0        2.638136    0.874863    0.801945
      9          8           0       -0.898091   -0.236322    2.639771
     10          8           0        1.051490   -1.096633    2.352635
     11          7           0        1.294702   -1.594211   -0.586518
     12          8           0        0.966145   -2.724922   -0.267583
     13          8           0        2.328472   -1.338273   -1.178838
     14          7           0       -1.289349    1.649835    0.416407
     15          8           0       -2.341356    1.789567   -0.181848
     16          8           0       -0.918074    2.398308    1.306794
     17         17           0       -0.053103    0.622720   -2.456315
 ---------------------------------------------------------------------
 Rotational constants (GHZ):      0.4153395      0.4104313      0.3839315
 General basis read from cards:  (5D, 7F)
 ======================================================================================================
                                       Pseudopotential Parameters
 ======================================================================================================
  Center     Atomic      Valence      Angular      Power
  Number     Number     Electrons     Momentum     of R      Exponent        Coefficient   SO-Coeffient
 ======================================================================================================
    1         78           18
                                      G and up 
                                                     1      728.9394056       -0.16192680    0.00000000
                                                     2      320.6567800    -1320.28738520    0.00000000
                                                     2       52.8680174     -298.31781350    0.00000000
                                                     2       12.0280128      -87.58370650    0.00000000
                                                     2        3.5238913       -8.14932740    0.00000000
                                      S - G
                                                     0      409.4437358        2.73342180    0.00000000
                                                     1      274.5419231       59.70243290    0.00000000
                                                     2      127.5658570      891.45895500    0.00000000
                                                     2       32.9036631      368.44676560    0.00000000
                                                     2        5.0593880      238.02630900    0.00000000
                                                     2        4.1506556     -107.05564540    0.00000000
                                      P - G
                                                     0      466.1728892        1.88785680    0.00000000
                                                     1      120.7888259       76.01386290    0.00000000
                                                     2       36.4118791      343.55111160    0.00000000
                                                     2        5.6985408      119.49117860    0.00000000
                                      D - G
                                                     0      249.5650763        2.93436780    0.00000000
                                                     1      126.6678585       59.33065710    0.00000000
                                                     2       63.1430586      452.44451940    0.00000000
                                                     2       17.9059470      210.47694790    0.00000000
                                                     2        4.2239373       58.62541120    0.00000000
                                      F - G
                                                     0      121.8158799        3.95342530    0.00000000
                                                     1       60.8757030       53.85551820    0.00000000
                                                     2       31.4767147      247.43051330    0.00000000
                                                     2        9.8811751      127.81879760    0.00000000
                                                     2        2.7319874       15.37720460    0.00000000
    2          7
                                   No pseudopotential on this center.
    3          8
                                   No pseudopotential on this center.
    4          8
                                   No pseudopotential on this center.
    5          7
                                   No pseudopotential on this center.
    6          7
                                   No pseudopotential on this center.
    7          8
                                   No pseudopotential on this center.
    8          8
                                   No pseudopotential on this center.
    9          8
                                   No pseudopotential on this center.
   10          8
                                   No pseudopotential on this center.
   11          7
                                   No pseudopotential on this center.
   12          8
                                   No pseudopotential on this center.
   13          8
                                   No pseudopotential on this center.
   14          7
                                   No pseudopotential on this center.
   15          8
                                   No pseudopotential on this center.
   16          8
                                   No pseudopotential on this center.
   17         17
                                   No pseudopotential on this center.
 ======================================================================================================
 There are   250 symmetry adapted basis functions of A   symmetry.
 Integral buffers will be    131072 words long.
 Raffenetti 2 integral format.
 Two-electron integral symmetry is turned on.
   250 basis functions,   455 primitive gaussians,   268 cartesian basis functions
    76 alpha electrons       76 beta electrons
       nuclear repulsion energy      1803.5665263020 Hartrees.
 NAtoms=   17 NActive=   17 NUniq=   17 SFac= 7.50D-01 NAtFMM=   80 NAOKFM=F Big=F
 ------------------------------------------------------------------------------
 Polarizable Continuum Model (PCM)
 =================================
 Model                : PCM.
 Atomic radii         : UFF (Universal Force Field).
 Polarization charges : Total charges.
 Charge compensation  : None.
 Solution method      : Matrix inversion.
 Cavity type          : Scaled VdW (van der Waals Surface) (Alpha=1.100).
 Cavity algorithm     : GePol (No added spheres)
                        Default sphere list used, NSphG=   17.
                        Lebedev-Laikov grids with approx.  5.0 points / Ang**2.
                        Smoothing algorithm: Karplus/York (Gamma=1.0000).
                        Polarization charges: spherical gaussians, with
                                              point-specific exponents (IZeta= 3).
                        Self-potential: point-specific (ISelfS= 7).
                        Self-field    : sphere-specific E.n sum rule (ISelfD= 2).
 1st derivatives      : Analytical E(r).r(x)/FMM algorithm (CHGder, D1EAlg=3).
                        Cavity 1st derivative terms included.
 Solvent              : Water, Eps=  78.355300 Eps(inf)=   1.777849
 ------------------------------------------------------------------------------
 Spheres list:
 ISph  on   Nord    Re0     Alpha      Xe            Ye            Ze
    1  Pt      1    1.377   1.100     -0.006055      0.022969     -0.082681
    2   N      2    1.830   1.100     -1.702562     -1.281644     -0.292414
    3   O      3    1.750   1.100     -1.839296     -2.146744      0.559881
    4   O      4    1.750   1.100     -2.472989     -1.134716     -1.222754
    5   N      5    1.830   1.100      0.064736     -0.513396      1.950091
    6   N      6    1.830   1.100      1.676300      1.311068      0.193372
    7   O      7    1.750   1.100      1.619094      2.442447     -0.255015
    8   O      8    1.750   1.100      2.638136      0.874863      0.801945
    9   O      9    1.750   1.100     -0.898091     -0.236322      2.639771
   10   O     10    1.750   1.100      1.051490     -1.096633      2.352635
   11   N     11    1.830   1.100      1.294702     -1.594211     -0.586518
   12   O     12    1.750   1.100      0.966145     -2.724922     -0.267583
   13   O     13    1.750   1.100      2.328472     -1.338273     -1.178838
   14   N     14    1.830   1.100     -1.289349      1.649835      0.416407
   15   O     15    1.750   1.100     -2.341356      1.789567     -0.181848
   16   O     16    1.750   1.100     -0.918074      2.398308      1.306794
   17  Cl     17    1.974   1.100     -0.053103      0.622720     -2.456315
 ------------------------------------------------------------------------------
 One-electron integrals computed using PRISM.
   1 Symmetry operations used in ECPInt.
 ECPInt:  NShTT=    5671 NPrTT=   23234 LenC2=    5315 LenP2D=   15248.
 LDataN:  DoStor=T MaxTD1= 6 Len=  172
 NBasis=   250 RedAO= T  NBF=   250
 NBsUse=   250 1.00D-06 NBFU=   250
 Defaulting to unpruned grid for atomic number  78.
 Harris functional with IExCor=  402 diagonalized for initial guess.
 ExpMin= 2.90D-02 ExpMax= 1.04D+04 ExpMxC= 1.57D+03 IAcc=3 IRadAn=         0 AccDes= 0.00D+00
 HarFok:  IExCor=  402 AccDes= 0.00D+00 IRadAn=         0 IDoV= 1
 ScaDFX=  1.000000  1.000000  1.000000  1.000000
 Defaulting to unpruned grid for atomic number  78.
 Defaulting to unpruned grid for atomic number  78.
 Defaulting to unpruned grid for atomic number  78.
 Defaulting to unpruned grid for atomic number  78.
 Defaulting to unpruned grid for atomic number  78.
 Defaulting to unpruned grid for atomic number  78.
 Defaulting to unpruned grid for atomic number  78.
 Defaulting to unpruned grid for atomic number  78.
 Defaulting to unpruned grid for atomic number  78.
 Defaulting to unpruned grid for atomic number  78.
 Defaulting to unpruned grid for atomic number  78.
 Defaulting to unpruned grid for atomic number  78.
 Defaulting to unpruned grid for atomic number  78.
 Defaulting to unpruned grid for atomic number  78.
 Defaulting to unpruned grid for atomic number  78.
 Defaulting to unpruned grid for atomic number  78.
 Defaulting to unpruned grid for atomic number  78.
 Defaulting to unpruned grid for atomic number  78.
 Defaulting to unpruned grid for atomic number  78.
 Defaulting to unpruned grid for atomic number  78.
 Defaulting to unpruned grid for atomic number  78.
 Defaulting to unpruned grid for atomic number  78.
 Defaulting to unpruned grid for atomic number  78.
 Defaulting to unpruned grid for atomic number  78.
 FoFCou: FMM=F IPFlag=           0 FMFlag=      100000 FMFlg1=           0
         NFxFlg=           0 DoJE=T BraDBF=F KetDBF=T FulRan=T
         Omega=  0.000000  0.000000  1.000000  0.000000  0.000000 ICntrl=     500 IOpCl=  0
         NMat0=    1 NMatS0=    1 NMatT0=    0 NMatD0=    1 NMtDS0=    0 NMtDT0=    0
         I1Cent=           4 NGrid=           0.
 Petite list used in FoFCou.
 Initial guess orbital symmetries:
       Occupied  (A) (A) (A) (A) (A) (A) (A) (A) (A) (A) (A) (A)
                 (A) (A) (A) (A) (A) (A) (A) (A) (A) (A) (A) (A)
                 (A) (A) (A) (A) (A) (A) (A) (A) (A) (A) (A) (A)
                 (A) (A) (A) (A) (A) (A) (A) (A) (A) (A) (A) (A)
                 (A) (A) (A) (A) (A) (A) (A) (A) (A) (A) (A) (A)
                 (A) (A) (A) (A) (A) (A) (A) (A) (A) (A) (A) (A)
                 (A) (A) (A) (A)
       Virtual   (A) (A) (A) (A) (A) (A) (A) (A) (A) (A) (A) (A)
                 (A) (A) (A) (A) (A) (A) (A) (A) (A) (A) (A) (A)
                 (A) (A) (A) (A) (A) (A) (A) (A) (A) (A) (A) (A)
                 (A) (A) (A) (A) (A) (A) (A) (A) (A) (A) (A) (A)
                 (A) (A) (A) (A) (A) (A) (A) (A) (A) (A) (A) (A)
                 (A) (A) (A) (A) (A) (A) (A) (A) (A) (A) (A) (A)
                 (A) (A) (A) (A) (A) (A) (A) (A) (A) (A) (A) (A)
                 (A) (A) (A) (A) (A) (A) (A) (A) (A) (A) (A) (A)
                 (A) (A) (A) (A) (A) (A) (A) (A) (A) (A) (A) (A)
                 (A) (A) (A) (A) (A) (A) (A) (A) (A) (A) (A) (A)
                 (A) (A) (A) (A) (A) (A) (A) (A) (A) (A) (A) (A)
                 (A) (A) (A) (A) (A) (A) (A) (A) (A) (A) (A) (A)
                 (A) (A) (A) (A) (A) (A) (A) (A) (A) (A) (A) (A)
                 (A) (A) (A) (A) (A) (A) (A) (A) (A) (A) (A) (A)
                 (A) (A) (A) (A) (A) (A)
 The electronic state of the initial guess is 1-A.
 Requested convergence on RMS density matrix=1.00D-08 within 128 cycles.
 Requested convergence on MAX density matrix=1.00D-06.
 Requested convergence on             energy=1.00D-06.
 No special actions if energy rises.
 Keep R1 ints in memory in canonical form, NReq=659807751.
 Defaulting to unpruned grid for atomic number  78.
 Defaulting to unpruned grid for atomic number  78.
 Defaulting to unpruned grid for atomic number  78.
 Defaulting to unpruned grid for atomic number  78.
 Defaulting to unpruned grid for atomic number  78.
 Defaulting to unpruned grid for atomic number  78.
 Defaulting to unpruned grid for atomic number  78.
 Defaulting to unpruned grid for atomic number  78.
 Defaulting to unpruned grid for atomic number  78.
 Defaulting to unpruned grid for atomic number  78.
 Defaulting to unpruned grid for atomic number  78.
 Defaulting to unpruned grid for atomic number  78.
 Defaulting to unpruned grid for atomic number  78.
 Defaulting to unpruned grid for atomic number  78.
 Defaulting to unpruned grid for atomic number  78.
 Defaulting to unpruned grid for atomic number  78.
 Defaulting to unpruned grid for atomic number  78.
 Defaulting to unpruned grid for atomic number  78.
 Defaulting to unpruned grid for atomic number  78.
 Defaulting to unpruned grid for atomic number  78.
 Defaulting to unpruned grid for atomic number  78.
 Defaulting to unpruned grid for atomic number  78.
 Defaulting to unpruned grid for atomic number  78.
 Defaulting to unpruned grid for atomic number  78.
 EnCoef did   100 forward-backward iterations
 EnCoef did   100 forward-backward iterations
 EnCoef did   100 forward-backward iterations
 EnCoef did     2 forward-backward iterations
 Error on total polarization charges =  0.00652
 SCF Done:  E(RB3LYP) =  -1604.39935979     A.U. after   22 cycles
             Convg  =    0.6538D-08             -V/T =  2.0588

 **********************************************************************

            Population analysis using the SCF density.

 **********************************************************************

 Orbital symmetries:
       Occupied  (A) (A) (A) (A) (A) (A) (A) (A) (A) (A) (A) (A)
                 (A) (A) (A) (A) (A) (A) (A) (A) (A) (A) (A) (A)
                 (A) (A) (A) (A) (A) (A) (A) (A) (A) (A) (A) (A)
                 (A) (A) (A) (A) (A) (A) (A) (A) (A) (A) (A) (A)
                 (A) (A) (A) (A) (A) (A) (A) (A) (A) (A) (A) (A)
                 (A) (A) (A) (A) (A) (A) (A) (A) (A) (A) (A) (A)
                 (A) (A) (A) (A)
       Virtual   (A) (A) (A) (A) (A) (A) (A) (A) (A) (A) (A) (A)
                 (A) (A) (A) (A) (A) (A) (A) (A) (A) (A) (A) (A)
                 (A) (A) (A) (A) (A) (A) (A) (A) (A) (A) (A) (A)
                 (A) (A) (A) (A) (A) (A) (A) (A) (A) (A) (A) (A)
                 (A) (A) (A) (A) (A) (A) (A) (A) (A) (A) (A) (A)
                 (A) (A) (A) (A) (A) (A) (A) (A) (A) (A) (A) (A)
                 (A) (A) (A) (A) (A) (A) (A) (A) (A) (A) (A) (A)
                 (A) (A) (A) (A) (A) (A) (A) (A) (A) (A) (A) (A)
                 (A) (A) (A) (A) (A) (A) (A) (A) (A) (A) (A) (A)
                 (A) (A) (A) (A) (A) (A) (A) (A) (A) (A) (A) (A)
                 (A) (A) (A) (A) (A) (A) (A) (A) (A) (A) (A) (A)
                 (A) (A) (A) (A) (A) (A) (A) (A) (A) (A) (A) (A)
                 (A) (A) (A) (A) (A) (A) (A) (A) (A) (A) (A) (A)
                 (A) (A) (A) (A) (A) (A) (A) (A) (A) (A) (A) (A)
                 (A) (A) (A) (A) (A) (A)
 The electronic state is 1-A.
 Alpha  occ. eigenvalues -- -101.44057 -19.16487 -19.16347 -19.15330 -19.15292
 Alpha  occ. eigenvalues --  -19.15278 -19.15199 -19.15194 -19.15162 -19.15149
 Alpha  occ. eigenvalues --  -19.15019 -14.53546 -14.51962 -14.51881 -14.51834
 Alpha  occ. eigenvalues --  -14.51661  -9.39274  -7.16003  -7.15302  -7.15286
 Alpha  occ. eigenvalues --   -4.02369  -2.23532  -2.23494  -2.23442  -1.20914
 Alpha  occ. eigenvalues --   -1.19650  -1.19359  -1.19357  -1.19201  -1.04080
 Alpha  occ. eigenvalues --   -1.02717  -1.02456  -1.02422  -1.02193  -0.74496
 Alpha  occ. eigenvalues --   -0.64899  -0.63419  -0.63154  -0.61051  -0.60974
 Alpha  occ. eigenvalues --   -0.54668  -0.53371  -0.53280  -0.52531  -0.51894
 Alpha  occ. eigenvalues --   -0.51610  -0.51394  -0.50554  -0.49903  -0.49623
 Alpha  occ. eigenvalues --   -0.49466  -0.49319  -0.49296  -0.49141  -0.49122
 Alpha  occ. eigenvalues --   -0.36852  -0.36561  -0.36424  -0.35586  -0.32390
 Alpha  occ. eigenvalues --   -0.31567  -0.30961  -0.30748  -0.30384  -0.29691
 Alpha  occ. eigenvalues --   -0.29485  -0.29218  -0.28591  -0.28244  -0.27983
 Alpha  occ. eigenvalues --   -0.27583  -0.26140  -0.25924  -0.25678  -0.23549
 Alpha  occ. eigenvalues --   -0.23475
 Alpha virt. eigenvalues --   -0.08917  -0.07331  -0.05306  -0.04799  -0.04319
 Alpha virt. eigenvalues --   -0.04007  -0.03592   0.05870   0.06665   0.06872
 Alpha virt. eigenvalues --    0.12091   0.23878   0.24969   0.26004   0.27248
 Alpha virt. eigenvalues --    0.31657   0.31986   0.32658   0.32999   0.37282
 Alpha virt. eigenvalues --    0.37636   0.38416   0.41027   0.41806   0.44099
 Alpha virt. eigenvalues --    0.44687   0.47149   0.51795   0.56382   0.57061
 Alpha virt. eigenvalues --    0.64902   0.67620   0.68265   0.68653   0.69574
 Alpha virt. eigenvalues --    0.71906   0.72049   0.73936   0.79043   0.79853
 Alpha virt. eigenvalues --    0.81259   0.83978   0.85357   0.85601   0.86314
 Alpha virt. eigenvalues --    0.86651   0.87180   0.88018   0.88723   0.89542
 Alpha virt. eigenvalues --    0.89871   0.90505   0.90874   0.91696   0.91952
 Alpha virt. eigenvalues --    0.92707   0.94869   0.95918   0.96554   0.97280
 Alpha virt. eigenvalues --    0.98256   0.99384   1.00210   1.01304   1.02395
 Alpha virt. eigenvalues --    1.02977   1.03749   1.03960   1.06006   1.06431
 Alpha virt. eigenvalues --    1.07056   1.08267   1.08510   1.09327   1.09947
 Alpha virt. eigenvalues --    1.11696   1.11942   1.13223   1.14857   1.16098
 Alpha virt. eigenvalues --    1.17914   1.19362   1.20778   1.21946   1.28350
 Alpha virt. eigenvalues --    1.29865   1.32126   1.35276   1.36622   1.38157
 Alpha virt. eigenvalues --    1.38415   1.39971   1.42182   1.43035   1.45929
 Alpha virt. eigenvalues --    1.47233   1.48828   1.50314   1.80276   1.81367
 Alpha virt. eigenvalues --    1.81430   1.82936   1.85251   1.88701   1.89309
 Alpha virt. eigenvalues --    1.94454   1.99180   2.03033   2.07224   2.10682
 Alpha virt. eigenvalues --    2.16183   2.16737   2.17003   2.37348   2.38072
 Alpha virt. eigenvalues --    2.39797   2.41550   2.42033   2.43032   2.44096
 Alpha virt. eigenvalues --    2.45167   2.46821   2.48442   2.60765   2.61545
 Alpha virt. eigenvalues --    2.61713   2.62825   2.63484   2.63623   2.63704
 Alpha virt. eigenvalues --    2.63780   2.64001   2.64318   2.64927   2.66324
 Alpha virt. eigenvalues --    2.66613   2.68845   2.69330   2.71336   2.71810
 Alpha virt. eigenvalues --    2.71818   2.71888   2.72271   2.99360   2.99892
 Alpha virt. eigenvalues --    3.00146   3.00702   3.01586   3.05682   3.06421
 Alpha virt. eigenvalues --    3.06675   3.06746   3.07061   3.29895   3.30034
 Alpha virt. eigenvalues --    3.30103   3.30393   3.30909   3.31962   3.39341
 Alpha virt. eigenvalues --    3.39722   3.40694   3.42701   3.69654   3.69949
 Alpha virt. eigenvalues --    3.70693   3.73390   3.74596   3.76331   3.76984
 Alpha virt. eigenvalues --    3.78063   3.79244   3.79758   7.34954
          Condensed to atoms (all electrons):
              1          2          3          4          5          6
     1  Pt  17.052941   0.145142  -0.032221  -0.022455   0.142474   0.133504
     2  N    0.145142   6.171276   0.270449   0.286918  -0.009518  -0.002036
     3  O   -0.032221   0.270449   8.141454  -0.099759   0.000222   0.000058
     4  O   -0.022455   0.286918  -0.099759   8.105354   0.000046   0.000042
     5  N    0.142474  -0.009518   0.000222   0.000046   6.195187  -0.002776
     6  N    0.133504  -0.002036   0.000058   0.000042  -0.002776   6.190237
     7  O   -0.021098   0.000044   0.000000  -0.000001  -0.000209   0.273772
     8  O   -0.022491   0.000048  -0.000001   0.000000  -0.004341   0.276209
     9  O   -0.031907  -0.001043  -0.000109   0.000000   0.270872  -0.000221
    10  O   -0.030254  -0.000074  -0.000407   0.000000   0.282154  -0.003282
    11  N    0.136349  -0.000350  -0.002995  -0.000275  -0.006206  -0.005869
    12  O   -0.022199  -0.004204   0.002939  -0.000043  -0.001330   0.000070
    13  O   -0.021462  -0.000068   0.000003   0.000002  -0.000097  -0.001901
    14  N    0.136958   0.000121  -0.000279  -0.002632  -0.009751  -0.007091
    15  O   -0.015519  -0.003491   0.000009   0.002475  -0.000100   0.000054
    16  O   -0.024374  -0.000029   0.000004   0.000002  -0.001486  -0.001472
    17  Cl   0.274473  -0.007160   0.000011  -0.000108  -0.001092  -0.006631
              7          8          9         10         11         12
     1  Pt  -0.021098  -0.022491  -0.031907  -0.030254   0.136349  -0.022199
     2  N    0.000044   0.000048  -0.001043  -0.000074  -0.000350  -0.004204
     3  O    0.000000  -0.000001  -0.000109  -0.000407  -0.002995   0.002939
     4  O   -0.000001   0.000000   0.000000   0.000000  -0.000275  -0.000043
     5  N   -0.000209  -0.004341   0.270872   0.282154  -0.006206  -0.001330
     6  N    0.273772   0.276209  -0.000221  -0.003282  -0.005869   0.000070
     7  O    8.120212  -0.096887   0.000005   0.000012   0.000040   0.000000
     8  O   -0.096887   8.117215   0.000032   0.003784  -0.001465  -0.000010
     9  O    0.000005   0.000032   8.113987  -0.096166   0.000069   0.000007
    10  O    0.000012   0.003784  -0.096166   8.094492  -0.001202   0.000488
    11  N    0.000040  -0.001465   0.000069  -0.001202   6.174885   0.277278
    12  O    0.000000  -0.000010   0.000007   0.000488   0.277278   8.124304
    13  O   -0.000041   0.000787   0.000000  -0.000087   0.279959  -0.097677
    14  N   -0.001001   0.000006  -0.001070   0.000042  -0.002144   0.000046
    15  O   -0.000046   0.000000  -0.000119   0.000000   0.000042   0.000000
    16  O    0.000182  -0.000044   0.000289   0.000005   0.000054   0.000000
    17  Cl  -0.000485  -0.000020   0.000021   0.000021  -0.007953  -0.000071
             13         14         15         16         17
     1  Pt  -0.021462   0.136958  -0.015519  -0.024374   0.274473
     2  N   -0.000068   0.000121  -0.003491  -0.000029  -0.007160
     3  O    0.000003  -0.000279   0.000009   0.000004   0.000011
     4  O    0.000002  -0.002632   0.002475   0.000002  -0.000108
     5  N   -0.000097  -0.009751  -0.000100  -0.001486  -0.001092
     6  N   -0.001901  -0.007091   0.000054  -0.001472  -0.006631
     7  O   -0.000041  -0.001001  -0.000046   0.000182  -0.000485
     8  O    0.000787   0.000006   0.000000  -0.000044  -0.000020
     9  O    0.000000  -0.001070  -0.000119   0.000289   0.000021
    10  O   -0.000087   0.000042   0.000000   0.000005   0.000021
    11  N    0.279959  -0.002144   0.000042   0.000054  -0.007953
    12  O   -0.097677   0.000046   0.000000   0.000000  -0.000071
    13  O    8.118628   0.000050   0.000000   0.000000  -0.000263
    14  N    0.000050   6.187955   0.282192   0.265478  -0.004285
    15  O    0.000000   0.282192   8.109215  -0.096832  -0.000399
    16  O    0.000000   0.265478  -0.096832   8.137751   0.000004
    17  Cl  -0.000263  -0.004285  -0.000399   0.000004  17.033643
 Mulliken atomic charges:
              1
     1  Pt   0.222138
     2  N    0.153977
     3  O   -0.279379
     4  O   -0.269565
     5  N    0.145951
     6  N    0.157333
     7  O   -0.274497
     8  O   -0.272822
     9  O   -0.254648
    10  O   -0.249524
    11  N    0.159782
    12  O   -0.279599
    13  O   -0.277832
    14  N    0.155405
    15  O   -0.277480
    16  O   -0.279535
    17  Cl  -0.279706
 Sum of Mulliken atomic charges =  -2.00000
 Mulliken charges with hydrogens summed into heavy atoms:
              1
     1  Pt   0.222138
     2  N    0.153977
     3  O   -0.279379
     4  O   -0.269565
     5  N    0.145951
     6  N    0.157333
     7  O   -0.274497
     8  O   -0.272822
     9  O   -0.254648
    10  O   -0.249524
    11  N    0.159782
    12  O   -0.279599
    13  O   -0.277832
    14  N    0.155405
    15  O   -0.277480
    16  O   -0.279535
    17  Cl  -0.279706
 Sum of Mulliken charges with hydrogens summed into heavy atoms =  -2.00000
 Electronic spatial extent (au):  <R**2>=           3694.5019
 Charge=             -2.0000 electrons
 Dipole moment (field-independent basis, Debye):
    X=              0.0904    Y=             -0.1254    Z=              0.7857  Tot=              0.8008
 Quadrupole moment (field-independent basis, Debye-Ang):
   XX=           -158.9774   YY=           -156.8519   ZZ=           -149.7846
   XY=              0.6509   XZ=             -1.3543   YZ=              1.8305
 Traceless Quadrupole moment (field-independent basis, Debye-Ang):
   XX=             -3.7728   YY=             -1.6473   ZZ=              5.4201
   XY=              0.6509   XZ=             -1.3543   YZ=              1.8305
 Octapole moment (field-independent basis, Debye-Ang**2):
  XXX=             -3.8018  YYY=              0.2754  ZZZ=             -5.8091  XYY=              0.5572
  XXY=              1.8758  XXZ=              7.5989  XZZ=              4.6748  YZZ=              0.3868
  YYZ=             -7.8996  XYZ=              0.2170
 Hexadecapole moment (field-independent basis, Debye-Ang**3):
 XXXX=          -1745.4298 YYYY=          -1718.1883 ZZZZ=          -1483.2809 XXXY=            -10.4398
 XXXZ=            -34.6033 YYYX=              2.2607 YYYZ=             -9.5021 ZZZX=              5.3950
 ZZZY=             29.4505 XXYY=           -612.6390 XXZZ=           -530.3313 YYZZ=           -500.3478
 XXYZ=            -16.3494 YYXZ=             19.8646 ZZXY=             10.8222
 N-N= 1.803566526302D+03 E-N=-7.404246165975D+03  KE= 1.515232615387D+03
   1 Symmetry operations used in ECPInt.
 ECPInt:  NShTT=    5671 NPrTT=   23234 LenC2=    5315 LenP2D=   15248.
 LDataN:  DoStor=T MaxTD1= 7 Len=  274
 D1PCM: PCM CHGder 1st derivatives, ID1Alg=3 FixD1E=F DoIter=F DoCFld=F I1PDM=0.
 Calling FoFJK, ICntrl=      2127 FMM=F ISym2X=0 I1Cent= 0 IOpClX= 0 NMat=1 NMatS=1 NMatT=0.
 Defaulting to unpruned grid for atomic number  78.
 Defaulting to unpruned grid for atomic number  78.
 Defaulting to unpruned grid for atomic number  78.
 Defaulting to unpruned grid for atomic number  78.
 Defaulting to unpruned grid for atomic number  78.
 Defaulting to unpruned grid for atomic number  78.
 Defaulting to unpruned grid for atomic number  78.
 Defaulting to unpruned grid for atomic number  78.
 Defaulting to unpruned grid for atomic number  78.
 Defaulting to unpruned grid for atomic number  78.
 Defaulting to unpruned grid for atomic number  78.
 Defaulting to unpruned grid for atomic number  78.
 Defaulting to unpruned grid for atomic number  78.
 Defaulting to unpruned grid for atomic number  78.
 Defaulting to unpruned grid for atomic number  78.
 Defaulting to unpruned grid for atomic number  78.
 Defaulting to unpruned grid for atomic number  78.
 Defaulting to unpruned grid for atomic number  78.
 Defaulting to unpruned grid for atomic number  78.
 Defaulting to unpruned grid for atomic number  78.
 Defaulting to unpruned grid for atomic number  78.
 Defaulting to unpruned grid for atomic number  78.
 Defaulting to unpruned grid for atomic number  78.
 Defaulting to unpruned grid for atomic number  78.
 ***** Axes restored to original set *****
 -------------------------------------------------------------------
 Center     Atomic                   Forces (Hartrees/Bohr)
 Number     Number              X              Y              Z
 -------------------------------------------------------------------
      1       78           0.000048657   -0.000016408   -0.000100103
      2        7          -0.000097992    0.000026008   -0.000114101
      3        8           0.000112872   -0.000064437    0.000022047
      4        8          -0.000061287    0.000013803    0.000177034
      5        7          -0.000076856   -0.000067917    0.000015229
      6        7          -0.000082554    0.000055226    0.000097173
      7        8           0.000067415   -0.000084523    0.000042430
      8        8           0.000108040    0.000011568   -0.000117070
      9        8           0.000062079   -0.000024142   -0.000022664
     10        8          -0.000043456    0.000042592    0.000065397
     11        7          -0.000166658    0.000225639    0.000050367
     12        8          -0.000000681   -0.000127361    0.000021245
     13        8           0.000021057    0.000023899   -0.000084668
     14        7          -0.000057444    0.000121631   -0.000076891
     15        8          -0.000078413   -0.000061691    0.000091660
     16        8           0.000025885   -0.000035429   -0.000036214
     17       17           0.000219336   -0.000038456   -0.000030871
 -------------------------------------------------------------------
 Cartesian Forces:  Max     0.000225639 RMS     0.000085501

 GradGradGradGradGradGradGradGradGradGradGradGradGradGradGradGradGradGrad
 Berny optimization.
 Internal  Forces:  Max     0.000193196 RMS     0.000077343
 Search for a local minimum.
 Step number   1 out of a maximum of  101
 All quantities printed in internal units (Hartrees-Bohrs-Radians)
 Mixed Optimization -- En-DIIS/RFO-DIIS
 Second derivative matrix not updated -- first step.
     Eigenvalues ---    0.00230   0.00230   0.00230   0.00230   0.00230
     Eigenvalues ---    0.00230   0.00230   0.00230   0.00230   0.00232
     Eigenvalues ---    0.07835   0.08123   0.08377   0.08588   0.11226
     Eigenvalues ---    0.11832   0.12485   0.12743   0.13453   0.13906
     Eigenvalues ---    0.13943   0.14089   0.14092   0.15100   0.16761
     Eigenvalues ---    0.24990   0.24997   0.24999   0.24999   0.25000
     Eigenvalues ---    0.25000   0.25000   0.25000   0.25000   0.25000
     Eigenvalues ---    0.94464   0.94941   0.95424   0.95864   0.95999
     Eigenvalues ---    0.96125   0.96159   0.96801   0.97027   0.97696
     Eigenvalues --- 1000.000001000.000001000.000001000.000001000.00000
     Eigenvalues --- 1000.000001000.000001000.000001000.000001000.00000
     Eigenvalues --- 1000.000001000.000001000.000001000.000001000.00000
     Eigenvalues --- 1000.000001000.000001000.000001000.000001000.00000
     Eigenvalues --- 1000.000001000.000001000.000001000.000001000.00000
     Eigenvalues --- 1000.000001000.000001000.000001000.000001000.00000
     Eigenvalues --- 1000.000001000.000001000.000001000.000001000.00000
     Eigenvalues --- 1000.000001000.000001000.000001000.000001000.00000
     Eigenvalues --- 1000.000001000.000001000.000001000.000001000.00000
     Eigenvalues --- 1000.00000
 RFO step:  Lambda=-2.86297964D-05 EMin= 2.30000000D-03
 Linear search not attempted -- first point.
 Iteration  1 RMS(Cart)=  0.00964491 RMS(Int)=  0.00008944
 Iteration  2 RMS(Cart)=  0.00009371 RMS(Int)=  0.00001542
 Iteration  3 RMS(Cart)=  0.00000001 RMS(Int)=  0.00001542
 Variable       Old X    -DE/DX   Delta X   Delta X   Delta X     New X
                                 (Linear)    (Quad)   (Total)
    R1        4.06363   0.00004   0.00000   0.00031   0.00031   4.06394
    R2        3.97511   0.00007   0.00000   0.00044   0.00044   3.97555
    R3        4.03788   0.00007   0.00000   0.00048   0.00048   4.03836
    R4        4.03583  -0.00018   0.00000  -0.00127  -0.00127   4.03456
    R5        4.02765   0.00008   0.00000   0.00056   0.00056   4.02821
    R6        4.62734   0.00002   0.00000   0.00012   0.00012   4.62746
    R7        2.30941   0.00005   0.00000   0.00005   0.00005   2.30946
    R8        2.29948  -0.00009   0.00000  -0.00010  -0.00010   2.29938
    R9        2.29853  -0.00006   0.00000  -0.00007  -0.00007   2.29847
   R10        2.29576  -0.00004   0.00000  -0.00004  -0.00004   2.29572
   R11        2.30232  -0.00010   0.00000  -0.00010  -0.00010   2.30222
   R12        2.30342   0.00002   0.00000   0.00002   0.00002   2.30345
   R13        2.30529   0.00012   0.00000   0.00013   0.00013   2.30542
   R14        2.30285   0.00007   0.00000   0.00007   0.00007   2.30292
   R15        2.30217   0.00002   0.00000   0.00002   0.00002   2.30219
   R16        2.30736  -0.00004   0.00000  -0.00005  -0.00005   2.30731
    A1        1.53690  -0.00014   0.00000  -0.00120  -0.00120   1.53569
    A2        1.56890  -0.00002   0.00000  -0.00035  -0.00035   1.56854
    A3        1.58170  -0.00006   0.00000  -0.00035  -0.00034   1.58136
    A4        1.60970   0.00019   0.00000   0.00189   0.00189   1.61159
    A5        1.57316   0.00002   0.00000  -0.00023  -0.00023   1.57293
    A6        1.58520   0.00006   0.00000   0.00037   0.00037   1.58557
    A7        1.55940  -0.00001   0.00000   0.00022   0.00022   1.55962
    A8        1.57821  -0.00005   0.00000  -0.00023  -0.00023   1.57798
    A9        1.55446   0.00013   0.00000   0.00095   0.00095   1.55541
   A10        1.56351  -0.00007   0.00000  -0.00046  -0.00046   1.56304
   A11        1.53927  -0.00015   0.00000  -0.00152  -0.00152   1.53775
   A12        1.59927   0.00011   0.00000   0.00093   0.00093   1.60020
   A13        2.03724  -0.00018   0.00000  -0.00074  -0.00075   2.03650
   A14        2.09534   0.00018   0.00000   0.00072   0.00071   2.09606
   A15        2.15058   0.00000   0.00000   0.00000   0.00000   2.15058
   A16        2.05242  -0.00004   0.00000  -0.00010  -0.00011   2.05231
   A17        2.06003   0.00011   0.00000   0.00047   0.00047   2.06050
   A18        2.17054  -0.00007   0.00000  -0.00025  -0.00026   2.17028
   A19        2.06609   0.00004   0.00000   0.00023   0.00015   2.06624
   A20        2.06015   0.00007   0.00000   0.00033   0.00026   2.06041
   A21        2.15690  -0.00011   0.00000  -0.00035  -0.00043   2.15647
   A22        2.06706   0.00007   0.00000   0.00029   0.00028   2.06734
   A23        2.06271  -0.00006   0.00000  -0.00023  -0.00023   2.06247
   A24        2.15342  -0.00001   0.00000  -0.00006  -0.00007   2.15336
   A25        2.08575   0.00005   0.00000   0.00016   0.00012   2.08587
   A26        2.04382  -0.00006   0.00000  -0.00027  -0.00031   2.04351
   A27        2.15361   0.00002   0.00000   0.00005   0.00000   2.15361
    D1       -0.35999  -0.00003   0.00000  -0.01896  -0.01897  -0.37896
    D2        2.77608  -0.00005   0.00000  -0.02422  -0.02421   2.75187
    D3        1.22528   0.00002   0.00000  -0.01858  -0.01858   1.20670
    D4       -1.92183   0.00001   0.00000  -0.02383  -0.02383  -1.94566
    D5       -1.91901  -0.00002   0.00000  -0.01918  -0.01918  -1.93820
    D6        1.21706  -0.00004   0.00000  -0.02443  -0.02443   1.19263
    D7        2.76446  -0.00013   0.00000  -0.02012  -0.02013   2.74433
    D8       -0.38265  -0.00015   0.00000  -0.02538  -0.02537  -0.40803
    D9       -2.65909  -0.00003   0.00000  -0.01361  -0.01361  -2.67270
   D10        0.45799   0.00001   0.00000   0.00744   0.00744   0.46544
   D11        0.46838  -0.00003   0.00000  -0.01916  -0.01916   0.44922
   D12       -2.69772   0.00000   0.00000   0.00190   0.00189  -2.69583
   D13       -1.08278  -0.00001   0.00000   0.00059   0.00059  -1.08219
   D14        2.03858   0.00001   0.00000   0.00684   0.00684   2.04542
   D15        2.05376   0.00006   0.00000   0.00121   0.00121   2.05496
   D16       -1.10808   0.00008   0.00000   0.00746   0.00746  -1.10062
   D17       -2.65118   0.00002   0.00000   0.00097   0.00097  -2.65021
   D18        0.47017   0.00003   0.00000   0.00722   0.00722   0.47739
   D19        0.49932  -0.00007   0.00000   0.00025   0.00025   0.49957
   D20       -2.66251  -0.00005   0.00000   0.00650   0.00650  -2.65601
   D21       -2.31023   0.00000   0.00000   0.00503   0.00503  -2.30520
   D22        0.82117   0.00006   0.00000   0.02659   0.02659   0.84777
   D23        2.38774  -0.00006   0.00000   0.00466   0.00466   2.39240
   D24       -0.76404   0.00000   0.00000   0.02622   0.02623  -0.73782
   D25       -0.75087  -0.00001   0.00000   0.00526   0.00526  -0.74562
   D26        2.38053   0.00005   0.00000   0.02682   0.02682   2.40735
   D27        0.84852   0.00010   0.00000   0.00619   0.00619   0.85471
   D28       -2.30326   0.00016   0.00000   0.02775   0.02775  -2.27551
   D29       -0.55277   0.00009   0.00000  -0.00445  -0.00445  -0.55721
   D30        2.58884   0.00009   0.00000  -0.01137  -0.01137   2.57747
   D31        0.98410  -0.00004   0.00000  -0.00566  -0.00566   0.97844
   D32       -2.15748  -0.00005   0.00000  -0.01258  -0.01258  -2.17006
   D33        2.55737  -0.00003   0.00000  -0.00589  -0.00589   2.55148
   D34       -0.58420  -0.00003   0.00000  -0.01281  -0.01281  -0.59702
   D35       -2.16254  -0.00010   0.00000  -0.00636  -0.00636  -2.16890
   D36        0.97907  -0.00010   0.00000  -0.01328  -0.01328   0.96578
   D37       -1.25686   0.00006   0.00000   0.01648   0.01648  -1.24039
   D38        1.88517   0.00001   0.00000  -0.00012  -0.00012   1.88505
   D39        1.88605   0.00001   0.00000   0.00912   0.00912   1.89517
   D40       -1.25509  -0.00003   0.00000  -0.00748  -0.00748  -1.26257
   D41       -0.70118  -0.00006   0.00000   0.02067   0.02068  -0.68050
   D42        2.43660  -0.00010   0.00000   0.00411   0.00411   2.44071
   D43       -2.23795   0.00007   0.00000   0.02187   0.02187  -2.21608
   D44        0.89984   0.00004   0.00000   0.00530   0.00530   0.90514
   D45        2.47189   0.00006   0.00000   0.02212   0.02212   2.49400
   D46       -0.67351   0.00002   0.00000   0.00555   0.00555  -0.66797
   D47        0.90885   0.00013   0.00000   0.02257   0.02257   0.93142
   D48       -2.23655   0.00009   0.00000   0.00600   0.00600  -2.23055
         Item               Value     Threshold  Converged?
 Maximum Force            0.000193     0.000450     YES
 RMS     Force            0.000077     0.000300     YES
 Maximum Displacement     0.032637     0.001800     NO 
 RMS     Displacement     0.009634     0.001200     NO 
 Predicted change in Energy=-1.447294D-05
 GradGradGradGradGradGradGradGradGradGradGradGradGradGradGradGradGradGrad

                          Input orientation:                          
 ---------------------------------------------------------------------
 Center     Atomic      Atomic             Coordinates (Angstroms)
 Number     Number       Type             X           Y           Z
 ---------------------------------------------------------------------
      1         78           0       -0.005178    0.023909   -0.082518
      2          7           0       -1.701304   -1.281152   -0.294224
      3          8           0       -1.827374   -2.158171    0.547505
      4          8           0       -2.484438   -1.119978   -1.211436
      5          7           0        0.059971   -0.512258    1.950736
      6          7           0        1.677661    1.310791    0.198187
      7          8           0        1.620688    2.443926   -0.245625
      8          8           0        2.648755    0.864914    0.784674
      9          8           0       -0.904983   -0.235449    2.637480
     10          8           0        1.048407   -1.089180    2.358166
     11          7           0        1.295588   -1.593326   -0.583292
     12          8           0        0.968847   -2.723438   -0.260139
     13          8           0        2.324444   -1.339044   -1.184881
     14          7           0       -1.290327    1.650981    0.412371
     15          8           0       -2.351204    1.777336   -0.173079
     16          8           0       -0.918793    2.402844    1.299757
     17         17           0       -0.042563    0.622209   -2.456753
 ---------------------------------------------------------------------
                    Distance matrix (angstroms):
                    1          2          3          4          5
     1  Pt   0.000000
     2  N    2.150546   0.000000
     3  O    2.911839   1.222115   0.000000
     4  O    2.954601   1.216780   2.145565   0.000000
     5  N    2.103769   2.955188   2.870568   4.103983   0.000000
     6  N    2.137009   4.286962   4.943783   5.021827   3.001976
     7  O    2.920021   4.991413   5.804954   5.521437   3.999858
     8  O    2.915934   4.969169   5.406573   5.854394   3.155647
     9  O    2.876683   3.212867   2.985911   4.253378   1.216296
    10  O    2.882004   3.825303   3.562493   5.022351   1.214843
    11  N    2.134998   3.026941   3.369072   3.860987   3.019397
    12  O    2.920307   3.034972   2.964906   3.924440   3.256277
    13  O    2.915474   4.123502   4.572716   4.813943   3.955188
    14  N    2.131640   3.043942   3.849198   3.426494   2.978167
    15  O    2.930281   3.129120   4.035078   3.080643   3.945453
    16  O    2.899087   4.089612   4.711078   4.600826   3.143179
    17  Cl   2.448745   3.324264   4.465605   3.247889   4.552306
                    6          7          8          9         10
     6  N    0.000000
     7  O    1.218282   0.000000
     8  O    1.218933   2.147491   0.000000
     9  O    3.874411   4.676576   4.156049   0.000000
    10  O    3.289579   4.426067   2.975815   2.150025   0.000000
    11  N    3.031598   4.064372   3.121753   4.130341   2.994569
    12  O    4.121588   5.208336   4.097560   4.254119   3.087500
    13  O    3.058241   3.960851   2.973509   5.124214   3.774107
    14  N    2.995089   3.087998   4.033966   2.942486   4.094421
    15  O    4.072746   4.028093   5.171982   3.747279   5.116783
    16  O    3.024501   2.973021   3.918920   2.958088   4.145399
    17  Cl   3.237595   3.312725   4.220065   5.237419   5.225181
                   11         12         13         14         15
    11  N    0.000000
    12  O    1.219976   0.000000
    13  O    1.218653   2.146937   0.000000
    14  N    4.266595   4.969073   4.955607   0.000000
    15  O    4.982843   5.593504   5.709401   1.218268   0.000000
    16  O    4.941531   5.681129   5.540193   1.220978   2.147629
    17  Cl   3.195168   4.128125   3.326694   3.293503   3.446637
                   16         17
    16  O    0.000000
    17  Cl   4.248506   0.000000
 Stoichiometry    ClN5O10Pt(2-)
 Framework group  C1[X(ClN5O10Pt)]
 Deg. of freedom    45
 Full point group                 C1      NOp   1
 Largest Abelian subgroup         C1      NOp   1
 Largest concise Abelian subgroup C1      NOp   1
                         Standard orientation:                         
 ---------------------------------------------------------------------
 Center     Atomic      Atomic             Coordinates (Angstroms)
 Number     Number       Type             X           Y           Z
 ---------------------------------------------------------------------
      1         78           0       -0.005119    0.023600   -0.082604
      2          7           0       -1.684287   -1.299479   -0.316504
      3          8           0       -1.811808   -2.178112    0.523321
      4          8           0       -2.457195   -1.146362   -1.243715
      5          7           0        0.039515   -0.512597    1.951196
      6          7           0        1.660066    1.328332    0.220113
      7          8           0        1.596687    2.460957   -0.224132
      8          8           0        2.628230    0.892665    0.818987
      9          8           0       -0.937137   -0.246398    2.625486
     10          8           0        1.028734   -1.079048    2.371222
     11          7           0        1.319261   -1.579420   -0.566917
     12          8           0        1.000506   -2.713089   -0.248276
     13          8           0        2.353015   -1.313906   -1.155109
     14          7           0       -1.313915    1.636626    0.396028
     15          8           0       -2.368438    1.751825   -0.203045
     16          8           0       -0.961948    2.392094    1.288314
     17         17           0       -0.018257    0.622350   -2.456984
 ---------------------------------------------------------------------
 Rotational constants (GHZ):      0.4159420      0.4101728      0.3835798
 Basis read from rwf:  (5D, 7F)
 Pseudo-potential data read from rwf file.
 There are   250 symmetry adapted basis functions of A   symmetry.
 Integral buffers will be    131072 words long.
 Raffenetti 2 integral format.
 Two-electron integral symmetry is turned on.
   250 basis functions,   455 primitive gaussians,   268 cartesian basis functions
    76 alpha electrons       76 beta electrons
       nuclear repulsion energy      1803.5674848981 Hartrees.
 NAtoms=   17 NActive=   17 NUniq=   17 SFac= 7.50D-01 NAtFMM=   80 NAOKFM=F Big=F
 ------------------------------------------------------------------------------
 Polarizable Continuum Model (PCM)
 =================================
 Model                : PCM.
 Atomic radii         : UFF (Universal Force Field).
 Polarization charges : Total charges.
 Charge compensation  : None.
 Solution method      : Matrix inversion.
 Cavity type          : Scaled VdW (van der Waals Surface) (Alpha=1.100).
 Cavity algorithm     : GePol (No added spheres)
                        Default sphere list used, NSphG=   17.
                        Lebedev-Laikov grids with approx.  5.0 points / Ang**2.
                        Smoothing algorithm: Karplus/York (Gamma=1.0000).
                        Polarization charges: spherical gaussians, with
                                              point-specific exponents (IZeta= 3).
                        Self-potential: point-specific (ISelfS= 7).
                        Self-field    : sphere-specific E.n sum rule (ISelfD= 2).
 1st derivatives      : Analytical E(r).r(x)/FMM algorithm (CHGder, D1EAlg=3).
                        Cavity 1st derivative terms included.
 Solvent              : Water, Eps=  78.355300 Eps(inf)=   1.777849
 ------------------------------------------------------------------------------
 Spheres list:
 ISph  on   Nord    Re0     Alpha      Xe            Ye            Ze
    1  Pt      1    1.377   1.100     -0.005119      0.023600     -0.082604
    2   N      2    1.830   1.100     -1.684287     -1.299479     -0.316504
    3   O      3    1.750   1.100     -1.811808     -2.178112      0.523321
    4   O      4    1.750   1.100     -2.457195     -1.146362     -1.243715
    5   N      5    1.830   1.100      0.039515     -0.512597      1.951196
    6   N      6    1.830   1.100      1.660066      1.328332      0.220113
    7   O      7    1.750   1.100      1.596687      2.460957     -0.224132
    8   O      8    1.750   1.100      2.628230      0.892665      0.818987
    9   O      9    1.750   1.100     -0.937137     -0.246398      2.625486
   10   O     10    1.750   1.100      1.028734     -1.079048      2.371222
   11   N     11    1.830   1.100      1.319261     -1.579420     -0.566917
   12   O     12    1.750   1.100      1.000506     -2.713089     -0.248276
   13   O     13    1.750   1.100      2.353015     -1.313906     -1.155109
   14   N     14    1.830   1.100     -1.313915      1.636626      0.396028
   15   O     15    1.750   1.100     -2.368438      1.751825     -0.203045
   16   O     16    1.750   1.100     -0.961948      2.392094      1.288314
   17  Cl     17    1.974   1.100     -0.018257      0.622350     -2.456984
 ------------------------------------------------------------------------------
 One-electron integrals computed using PRISM.
   1 Symmetry operations used in ECPInt.
 ECPInt:  NShTT=    5671 NPrTT=   23234 LenC2=    5313 LenP2D=   15238.
 LDataN:  DoStor=T MaxTD1= 6 Len=  172
 NBasis=   250 RedAO= T  NBF=   250
 NBsUse=   250 1.00D-06 NBFU=   250
 Defaulting to unpruned grid for atomic number  78.
 Initial guess read from the read-write file.
 B after Tr=     0.000000    0.000000    0.000000
         Rot=    1.000000    0.000000    0.000000    0.000000 Ang=   0.00 deg.
 Initial guess orbital symmetries:
       Occupied  (A) (A) (A) (A) (A) (A) (A) (A) (A) (A) (A) (A)
                 (A) (A) (A) (A) (A) (A) (A) (A) (A) (A) (A) (A)
                 (A) (A) (A) (A) (A) (A) (A) (A) (A) (A) (A) (A)
                 (A) (A) (A) (A) (A) (A) (A) (A) (A) (A) (A) (A)
                 (A) (A) (A) (A) (A) (A) (A) (A) (A) (A) (A) (A)
                 (A) (A) (A) (A) (A) (A) (A) (A) (A) (A) (A) (A)
                 (A) (A) (A) (A)
       Virtual   (A) (A) (A) (A) (A) (A) (A) (A) (A) (A) (A) (A)
                 (A) (A) (A) (A) (A) (A) (A) (A) (A) (A) (A) (A)
                 (A) (A) (A) (A) (A) (A) (A) (A) (A) (A) (A) (A)
                 (A) (A) (A) (A) (A) (A) (A) (A) (A) (A) (A) (A)
                 (A) (A) (A) (A) (A) (A) (A) (A) (A) (A) (A) (A)
                 (A) (A) (A) (A) (A) (A) (A) (A) (A) (A) (A) (A)
                 (A) (A) (A) (A) (A) (A) (A) (A) (A) (A) (A) (A)
                 (A) (A) (A) (A) (A) (A) (A) (A) (A) (A) (A) (A)
                 (A) (A) (A) (A) (A) (A) (A) (A) (A) (A) (A) (A)
                 (A) (A) (A) (A) (A) (A) (A) (A) (A) (A) (A) (A)
                 (A) (A) (A) (A) (A) (A) (A) (A) (A) (A) (A) (A)
                 (A) (A) (A) (A) (A) (A) (A) (A) (A) (A) (A) (A)
                 (A) (A) (A) (A) (A) (A) (A) (A) (A) (A) (A) (A)
                 (A) (A) (A) (A) (A) (A) (A) (A) (A) (A) (A) (A)
                 (A) (A) (A) (A) (A) (A)
 Harris functional with IExCor=  402 diagonalized for initial guess.
 ExpMin= 2.90D-02 ExpMax= 1.04D+04 ExpMxC= 1.57D+03 IAcc=3 IRadAn=         0 AccDes= 0.00D+00
 HarFok:  IExCor=  402 AccDes= 0.00D+00 IRadAn=         0 IDoV= 1
 ScaDFX=  1.000000  1.000000  1.000000  1.000000
 Defaulting to unpruned grid for atomic number  78.
 Defaulting to unpruned grid for atomic number  78.
 Defaulting to unpruned grid for atomic number  78.
 Defaulting to unpruned grid for atomic number  78.
 Defaulting to unpruned grid for atomic number  78.
 Defaulting to unpruned grid for atomic number  78.
 Defaulting to unpruned grid for atomic number  78.
 Defaulting to unpruned grid for atomic number  78.
 Defaulting to unpruned grid for atomic number  78.
 Defaulting to unpruned grid for atomic number  78.
 Defaulting to unpruned grid for atomic number  78.
 Defaulting to unpruned grid for atomic number  78.
 Defaulting to unpruned grid for atomic number  78.
 Defaulting to unpruned grid for atomic number  78.
 Defaulting to unpruned grid for atomic number  78.
 Defaulting to unpruned grid for atomic number  78.
 Defaulting to unpruned grid for atomic number  78.
 Defaulting to unpruned grid for atomic number  78.
 Defaulting to unpruned grid for atomic number  78.
 Defaulting to unpruned grid for atomic number  78.
 Defaulting to unpruned grid for atomic number  78.
 Defaulting to unpruned grid for atomic number  78.
 Defaulting to unpruned grid for atomic number  78.
 Defaulting to unpruned grid for atomic number  78.
 FoFCou: FMM=F IPFlag=           0 FMFlag=      100000 FMFlg1=           0
         NFxFlg=           0 DoJE=T BraDBF=F KetDBF=T FulRan=T
         Omega=  0.000000  0.000000  1.000000  0.000000  0.000000 ICntrl=     500 IOpCl=  0
         NMat0=    1 NMatS0=    1 NMatT0=    0 NMatD0=    1 NMtDS0=    0 NMtDT0=    0
         I1Cent=           4 NGrid=           0.
 Petite list used in FoFCou.
 Requested convergence on RMS density matrix=1.00D-08 within 128 cycles.
 Requested convergence on MAX density matrix=1.00D-06.
 Requested convergence on             energy=1.00D-06.
 No special actions if energy rises.
 Keep R1 ints in memory in canonical form, NReq=659807751.
 Defaulting to unpruned grid for atomic number  78.
 Defaulting to unpruned grid for atomic number  78.
 Defaulting to unpruned grid for atomic number  78.
 Defaulting to unpruned grid for atomic number  78.
 Defaulting to unpruned grid for atomic number  78.
 Defaulting to unpruned grid for atomic number  78.
 Defaulting to unpruned grid for atomic number  78.
 Defaulting to unpruned grid for atomic number  78.
 Defaulting to unpruned grid for atomic number  78.
 Defaulting to unpruned grid for atomic number  78.
 Defaulting to unpruned grid for atomic number  78.
 Defaulting to unpruned grid for atomic number  78.
 Defaulting to unpruned grid for atomic number  78.
 Defaulting to unpruned grid for atomic number  78.
 Defaulting to unpruned grid for atomic number  78.
 Defaulting to unpruned grid for atomic number  78.
 Defaulting to unpruned grid for atomic number  78.
 Defaulting to unpruned grid for atomic number  78.
 Defaulting to unpruned grid for atomic number  78.
 Defaulting to unpruned grid for atomic number  78.
 Defaulting to unpruned grid for atomic number  78.
 Defaulting to unpruned grid for atomic number  78.
 Defaulting to unpruned grid for atomic number  78.
 Defaulting to unpruned grid for atomic number  78.
 Error on total polarization charges =  0.00651
 SCF Done:  E(RB3LYP) =  -1604.39934288     A.U. after   12 cycles
             Convg  =    0.4874D-08             -V/T =  2.0588
   1 Symmetry operations used in ECPInt.
 ECPInt:  NShTT=    5671 NPrTT=   23234 LenC2=    5313 LenP2D=   15238.
 LDataN:  DoStor=T MaxTD1= 7 Len=  274
 D1PCM: PCM CHGder 1st derivatives, ID1Alg=3 FixD1E=F DoIter=F DoCFld=F I1PDM=0.
 Calling FoFJK, ICntrl=      2127 FMM=F ISym2X=0 I1Cent= 0 IOpClX= 0 NMat=1 NMatS=1 NMatT=0.
 Defaulting to unpruned grid for atomic number  78.
 Defaulting to unpruned grid for atomic number  78.
 Defaulting to unpruned grid for atomic number  78.
 Defaulting to unpruned grid for atomic number  78.
 Defaulting to unpruned grid for atomic number  78.
 Defaulting to unpruned grid for atomic number  78.
 Defaulting to unpruned grid for atomic number  78.
 Defaulting to unpruned grid for atomic number  78.
 Defaulting to unpruned grid for atomic number  78.
 Defaulting to unpruned grid for atomic number  78.
 Defaulting to unpruned grid for atomic number  78.
 Defaulting to unpruned grid for atomic number  78.
 Defaulting to unpruned grid for atomic number  78.
 Defaulting to unpruned grid for atomic number  78.
 Defaulting to unpruned grid for atomic number  78.
 Defaulting to unpruned grid for atomic number  78.
 Defaulting to unpruned grid for atomic number  78.
 Defaulting to unpruned grid for atomic number  78.
 Defaulting to unpruned grid for atomic number  78.
 Defaulting to unpruned grid for atomic number  78.
 Defaulting to unpruned grid for atomic number  78.
 Defaulting to unpruned grid for atomic number  78.
 Defaulting to unpruned grid for atomic number  78.
 Defaulting to unpruned grid for atomic number  78.
 ***** Axes restored to original set *****
 -------------------------------------------------------------------
 Center     Atomic                   Forces (Hartrees/Bohr)
 Number     Number              X              Y              Z
 -------------------------------------------------------------------
      1       78           0.000086250    0.000164813    0.000286384
      2        7          -0.000208385    0.000159961   -0.000030206
      3        8           0.000114654   -0.000016023    0.000091275
      4        8           0.000153641   -0.000060756   -0.000035565
      5        7           0.000294952    0.000515026    0.000056332
      6        7           0.000767061   -0.000530831   -0.001586546
      7        8          -0.000276523    0.000179593    0.000545381
      8        8          -0.000305548    0.000124451    0.000665618
      9        8          -0.000238597   -0.000208964   -0.000066171
     10        8          -0.000048837   -0.000110797   -0.000117387
     11        7          -0.000256002   -0.000183556   -0.000433506
     12        8           0.000214878    0.000004429    0.000150784
     13        8           0.000062526    0.000042770    0.000141252
     14        7          -0.000692759   -0.000812654    0.000940888
     15        8           0.000186219    0.000331288   -0.000287123
     16        8           0.000211442    0.000313366   -0.000321108
     17       17          -0.000064972    0.000087884   -0.000000302
 -------------------------------------------------------------------
 Cartesian Forces:  Max     0.001586546 RMS     0.000395147

 GradGradGradGradGradGradGradGradGradGradGradGradGradGradGradGradGradGrad
 Berny optimization.
 Using GEDIIS/GDIIS optimizer.
 Internal  Forces:  Max     0.000340355 RMS     0.000139229
 Search for a local minimum.
 Step number   2 out of a maximum of  101
 All quantities printed in internal units (Hartrees-Bohrs-Radians)
 Mixed Optimization -- En-DIIS/RFO-DIIS
 Swaping is turned off.
 Update second derivatives using D2CorX and points    1    2
 DE=  1.69D-05 DEPred=-1.45D-05 R=-1.17D+00
 Trust test=-1.17D+00 RLast= 1.04D-01 DXMaxT set to 1.50D-01
     Eigenvalues ---    0.00096   0.00230   0.00230   0.00230   0.00230
     Eigenvalues ---    0.00230   0.00230   0.00231   0.00231   0.01748
     Eigenvalues ---    0.07869   0.08051   0.08397   0.08656   0.11126
     Eigenvalues ---    0.11749   0.12321   0.12742   0.13472   0.13903
     Eigenvalues ---    0.13950   0.14089   0.14114   0.15162   0.16711
     Eigenvalues ---    0.24669   0.24992   0.24998   0.24999   0.24999
     Eigenvalues ---    0.25000   0.25000   0.25000   0.25000   0.25237
     Eigenvalues ---    0.94455   0.94939   0.95389   0.95861   0.95990
     Eigenvalues ---    0.96099   0.96159   0.96773   0.97051   0.97692
     Eigenvalues --- 1000.000001000.000001000.000001000.000001000.00000
     Eigenvalues --- 1000.000001000.000001000.000001000.000001000.00000
     Eigenvalues --- 1000.000001000.000001000.000001000.000001000.00000
     Eigenvalues --- 1000.000001000.000001000.000001000.000001000.00000
     Eigenvalues --- 1000.000001000.000001000.000001000.000001000.00000
     Eigenvalues --- 1000.000001000.000001000.000001000.000001000.00000
     Eigenvalues --- 1000.000001000.000001000.000001000.000001000.00000
     Eigenvalues --- 1000.000001000.000001000.000001000.000001000.00000
     Eigenvalues --- 1000.000001000.000001000.000001000.000001000.00000
     Eigenvalues --- 1000.00000
 En-DIIS/RFO-DIIS IScMMF=        0 using points:     2    1
 RFO step:  Lambda=-1.01437580D-05.
 DIIS coeffs:      0.32576      0.67424
 Iteration  1 RMS(Cart)=  0.01477997 RMS(Int)=  0.00019974
 Iteration  2 RMS(Cart)=  0.00020165 RMS(Int)=  0.00002964
 Iteration  3 RMS(Cart)=  0.00000002 RMS(Int)=  0.00002964
 Variable       Old X    -DE/DX   Delta X   Delta X   Delta X     New X
                                  (DIIS)     (GDIIS)  (Total)
    R1        4.06394  -0.00010  -0.00021   0.00041   0.00020   4.06415
    R2        3.97555  -0.00017  -0.00030   0.00057   0.00027   3.97582
    R3        4.03836  -0.00004  -0.00032   0.00093   0.00061   4.03897
    R4        4.03456   0.00015   0.00086  -0.00235  -0.00149   4.03307
    R5        4.02821   0.00012  -0.00038   0.00148   0.00110   4.02931
    R6        4.62746   0.00002  -0.00008   0.00030   0.00022   4.62768
    R7        2.30946   0.00006  -0.00003   0.00012   0.00009   2.30955
    R8        2.29938  -0.00007   0.00006  -0.00023  -0.00017   2.29922
    R9        2.29847   0.00011   0.00005  -0.00010  -0.00006   2.29841
   R10        2.29572  -0.00004   0.00003  -0.00009  -0.00007   2.29565
   R11        2.30222  -0.00003   0.00007  -0.00023  -0.00016   2.30206
   R12        2.30345   0.00004  -0.00002   0.00007   0.00005   2.30350
   R13        2.30542  -0.00001  -0.00009   0.00027   0.00018   2.30560
   R14        2.30292  -0.00002  -0.00005   0.00014   0.00009   2.30301
   R15        2.30219   0.00001  -0.00001   0.00004   0.00003   2.30222
   R16        2.30731   0.00002   0.00003  -0.00009  -0.00006   2.30726
    A1        1.53569   0.00000   0.00081  -0.00253  -0.00172   1.53398
    A2        1.56854  -0.00009   0.00024  -0.00109  -0.00086   1.56769
    A3        1.58136  -0.00005   0.00023  -0.00076  -0.00053   1.58083
    A4        1.61159  -0.00001  -0.00127   0.00396   0.00268   1.61427
    A5        1.57293   0.00001   0.00016  -0.00042  -0.00026   1.57267
    A6        1.58557   0.00005  -0.00025   0.00094   0.00069   1.58626
    A7        1.55962  -0.00015  -0.00015  -0.00007  -0.00022   1.55940
    A8        1.57798  -0.00015   0.00016  -0.00084  -0.00068   1.57730
    A9        1.55541   0.00028  -0.00064   0.00273   0.00209   1.55750
   A10        1.56304  -0.00001   0.00031  -0.00104  -0.00073   1.56232
   A11        1.53775   0.00009   0.00103  -0.00286  -0.00183   1.53592
[...]
 ! D45   D(6,1,14,15)          142.9386         -DE/DX =    0.0                 !
 ! D46   D(6,1,14,16)          -37.5171         -DE/DX =    0.0                 !
 ! D47   D(17,1,14,15)          53.4272         -DE/DX =    0.0                 !
 ! D48   D(17,1,14,16)        -127.0284         -DE/DX =    0.0                 !
 --------------------------------------------------------------------------------
 GradGradGradGradGradGradGradGradGradGradGradGradGradGradGradGradGradGrad

 1\1\GINC-NEQC23\Freq\RB3LYP\Gen\Cl1N5O10Pt1(2-)\GUEST\01-Dec-2021\0\\#
 N Geom=AllCheck Guess=TCheck SCRF=Check GenChk RB3LYP/ChkBas Freq\\Est
 rutura 66\\-2,1\Pt,-0.0056583113,0.0239122037,-0.0837052976\N,-1.70135
 3804,-1.2812850466,-0.2936064591\O,-1.8263587066,-2.157793865,0.548867
 174\O,-2.482636676,-1.1235792852,-1.2129091072\N,0.0581333458,-0.51070
 5056,1.9497434802\N,1.6805960827,1.3067141044,0.1938592691\O,1.6272966
 579,2.4399030712,-0.2499724673\O,2.6430935027,0.8634646652,0.796497643
 \O,-0.9102858323,-0.2366748531,2.633105593\O,1.0450893876,-1.088018438
 5,2.3596562094\N,1.2964501253,-1.5922922534,-0.586538181\O,0.976553387
 4,-2.7217324751,-0.2545322404\O,2.3228787562,-1.3367821412,-1.19191609
 38\N,-1.291508674,1.6493821731,0.416453496\O,-2.3541887268,1.775796198
 2,-0.1656376833\O,-0.9118500704,2.4081505891,1.2945059764\Cl,-0.048052
 4441,0.6264554094,-2.4569413115\\Version=EM64L-G09RevA.02\State=1-A\HF
 =-1604.3993698\RMSD=6.543e-09\RMSF=9.200e-06\ZeroPoint=0.0608444\Therm
 al=0.0801909\Dipole=0.0348958,-0.0516232,0.3042836\DipoleDeriv=0.93881
 81,0.0280451,-0.160516,0.0455479,1.0418702,0.1310902,-0.1382324,0.1321
 64,1.0138672,1.790023,0.6966571,0.6963024,0.7257151,1.485201,-0.524234
 1,0.5667426,-0.5713053,1.5985152,-1.0239108,-0.6593714,-0.0368421,-0.6
 642919,-1.296278,0.4246737,0.057595,0.5327027,-0.8028948,-1.5476017,-0
 .4770097,-0.7258597,-0.5287522,-0.7289325,-0.025954,-0.6836546,0.00061
 43,-1.0129384,1.844091,-0.6238085,-0.1285701,-0.6511755,0.8509034,-0.5
 523775,-0.1411803,-0.4953574,2.6826266,2.0143456,0.4282781,0.5799687,0
 .3985154,2.0516694,-0.6087608,0.6344622,-0.4799828,0.8903798,-1.014328
 5,-0.5527352,-0.11324,-0.588102,-1.7700773,0.3821768,-0.0974746,0.3227
 078,-0.4930969,-1.7690818,-0.2912002,-0.5224061,-0.2611131,-0.8311552,
 0.1321681,-0.6089564,0.055673,-0.5841721,-0.9915265,0.1836749,0.577121
 9,0.2011627,-0.3960876,0.1117994,0.4566156,0.1568123,-1.7649564,-0.974
 8431,0.4248465,-0.4242472,0.4546438,-0.6107349,0.5528459,-0.3422202,0.
 4602735,-1.531513,1.8273534,-0.1861007,-0.846864,-0.2142824,2.2460741,
 -0.071889,-0.767105,-0.1320297,0.8511882,-0.7906649,0.2447318,0.243770
 8,0.2968147,-1.980327,-0.0096821,0.2353973,0.036308,-0.4349881,-1.5685
 702,0.3640133,0.7253555,0.3403158,-0.9790521,-0.1053945,0.68407,-0.111
 985,-0.6965098,1.9238729,-0.5989011,0.5860596,-0.5471721,1.6989509,0.6
 541661,0.5424359,0.6845016,1.2825087,-1.649103,0.7123455,-0.3413855,0.
 6622247,-1.0109251,-0.0928107,-0.2917452,-0.1119077,-0.6235329,-0.8010
 253,0.2953738,-0.1226246,0.3312622,-1.4375289,-0.6887117,-0.0760463,-0
 .7670146,-0.9298443,-0.207848,0.0111606,0.0139763,-0.0013132,-0.333570
 4,0.2908942,-0.0307036,0.2878253,-1.4446391\Polar=206.698105,-1.729741
 2,197.8605279,5.6992163,-10.2116644,193.2667524\PG=C01 [X(Cl1N5O10Pt1)
 ]\NImag=0\\0.27817024,-0.00797100,0.27598286,0.01185191,-0.03069028,0.
 32509712,-0.06148886,-0.00565313,0.00582415,0.48588879,-0.00688886,-0.
 05803925,-0.00711120,0.09662456,0.47607938,0.00760465,-0.00811024,-0.0
 3983760,0.22630633,-0.27480421,0.65276593,0.00869474,-0.01512711,0.007
 68470,-0.10893690,-0.08642449,0.03462980,0.08610271,-0.00235454,-0.004
 46710,0.01741013,-0.08298754,-0.33986694,0.24471659,0.05398614,0.35817
 958,-0.00539340,0.00688407,0.00068191,0.03037719,0.23793208,-0.2777134
 1,0.00448657,-0.31573398,0.37243783,-0.00218730,0.00486631,-0.02090108
 ,-0.31964448,-0.00142292,-0.26152765,0.02475242,0.03661314,-0.03241547
 ,0.30615512,-0.00708829,0.01241930,-0.00364952,-0.00322945,-0.09034342
 ,0.04488681,0.04823716,-0.00544038,0.07158451,-0.03410354,0.09242165,-
 0.00765932,0.00854567,-0.00312102,-0.25731740,0.04621587,-0.34200302,-
 0.04560181,0.05987577,-0.09369356,0.30886045,-0.11293438,0.43840040,-0
 .03174891,-0.00828409,-0.00382723,-0.00386870,0.00331876,-0.01040877,-
 0.00189687,-0.00198693,0.00397073,0.00077283,-0.00178022,0.00175445,0.
 79925739,-0.00890361,-0.05064942,0.00760266,0.00232229,0.00249932,-0.0
 0253267,-0.00199882,-0.00281716,-0.00158644,-0.00151898,-0.00094955,-0
 .00006058,-0.28008808,0.31009210,-0.00395603,0.00372252,-0.06963635,-0
 .01873561,-0.01634749,-0.00472115,0.00475101,0.00683128,-0.00643157,0.
 00632851,0.00440930,0.00242806,-0.07748270,-0.06790585,0.55038289,-0.0
 5891338,-0.01535339,0.00141610,0.01302672,-0.00498129,-0.00440198,0.00
 163418,0.00518640,0.00017761,0.00444724,0.00472309,0.00385131,0.003211
 21,-0.01166125,0.01911146,0.58543331,-0.01350635,-0.04538085,-0.009996
 47,-0.00645794,0.01522807,0.00100930,0.00611474,0.00255299,-0.00195181
 ,0.00400262,-0.00108951,0.00059708,-0.00779298,-0.00499790,0.01260693,
 -0.05922148,0.71258921,0.00113404,-0.00848332,-0.05787322,-0.00192064,
 0.00253915,0.01997411,-0.00068572,-0.00280884,-0.00241697,0.00526349,0
 .00131403,-0.00091909,0.00909175,0.00192962,0.00074906,0.22033764,-0.2
 3953822,0.32968710,0.00903378,-0.01162606,0.00349592,0.00066363,0.0058
 4114,0.00027488,-0.00278016,-0.00483359,0.00158661,-0.00566197,-0.0033
 3514,-0.00326330,-0.00160277,0.00237244,-0.00494901,-0.10449256,-0.028
 07036,-0.01518139,0.09948413,0.00561888,-0.01467693,0.01478237,0.00449
 364,0.00496757,-0.00174285,-0.00581869,-0.00771740,0.00332558,-0.01047
 500,-0.00449809,-0.00525999,0.00237863,0.00126095,-0.00582142,-0.02312
 482,-0.52514355,0.16657721,-0.03912738,0.59979064,-0.00410577,0.004207
 12,0.01017685,0.00036839,-0.00122990,-0.00342439,0.00082113,0.00151252
 ,0.00007246,0.00048629,0.00044011,0.00117847,-0.00165740,-0.00013079,0
 .00012392,-0.01733154,0.16445929,-0.11553161,0.05063056,-0.23160697,0.
 13065031,-0.01147013,0.01302082,-0.01553197,0.00665423,0.00245178,0.00
 297786,-0.00730257,-0.00926950,0.00354868,-0.00936433,-0.00383969,-0.0
 0507756,-0.00152905,0.00530128,-0.00754424,-0.42603530,0.10405409,-0.2
 1129754,0.00457392,0.06451343,-0.02975063,0.43939773,-0.00585820,0.007
 76619,-0.00087711,0.00429306,-0.00117231,0.00030270,-0.00251172,-0.002
 00486,0.00101324,-0.00260518,-0.00047583,-0.00108250,0.00502217,-0.001
 63437,-0.00059214,0.09946972,-0.14362555,0.08155707,0.08272747,-0.0569
 2932,0.06532505,-0.17425005,0.19887699,-0.00810303,0.00804408,0.008468
 71,0.00360236,-0.00031359,-0.00319835,-0.00274495,-0.00275365,0.002054
 07,-0.00432380,-0.00140960,-0.00147722,-0.00498898,0.00396096,-0.00371
 179,-0.20769902,0.08259841,-0.17115958,-0.03685293,0.05743809,-0.02129
 913,0.25327410,-0.14569156,0.18955000,-0.00307008,0.00587308,0.0072726
 6,-0.00186760,-0.00596080,0.00371640,0.00110311,0.00203978,-0.00583291
 ,0.00008507,0.00175646,-0.00105346,-0.37145724,0.09131212,0.22430145,0
 .00097273,0.00303944,-0.00177353,0.00002571,-0.00116989,0.00036483,-0.
 00082756,-0.00185956,0.00143764,0.48966183,0.00232608,0.01192820,0.002
 59839,-0.00064883,-0.00210645,0.00139399,0.00008917,-0.00022064,-0.002
 45311,-0.00004512,0.00065183,-0.00063876,0.08734935,-0.08319739,-0.040
 72620,0.00224028,-0.00006330,0.00032978,-0.00054812,0.00023548,-0.0001
 7215,-0.00121543,0.00068753,-0.00114681,-0.15007722,0.08251518,0.02313
 232,-0.00288642,-0.01075706,0.00631309,0.00609419,0.00024604,-0.002924
 45,-0.00434512,0.00222865,-0.00247895,-0.00208116,-0.00084070,0.232966
 14,-0.04695285,-0.29349968,-0.00608220,-0.00494382,-0.00025988,0.00178
 364,0.00238153,0.00000861,0.00324366,0.00121432,0.00046126,-0.26250082
 ,0.05747502,0.26972639,-0.00364068,0.01069570,-0.00343762,0.00221609,0
 .00161487,0.00100604,0.00003580,-0.00128399,-0.00030579,-0.00038459,-0
 .00022110,0.00011482,-0.39257910,0.19798395,-0.14261426,-0.00904514,0.
 00213902,-0.00417623,0.00233834,-0.00125994,0.00113435,0.00258956,-0.0
 0450235,0.00654095,-0.11605537,0.06185999,0.00889052,0.51303522,0.0138
 8670,0.00566353,0.00532302,-0.00243751,-0.00202366,0.00002988,0.000485
 65,0.00136275,-0.00013076,0.00124877,0.00070121,0.00024140,0.20046183,
 -0.17550433,0.10471839,0.00333781,0.00238833,-0.00140485,-0.00086725,-
 0.00140075,0.00046294,-0.00234085,-0.00150640,0.00072331,0.05618581,-0
 .00428799,-0.01133034,-0.26766683,0.17715458,-0.01922809,0.01425755,-0
 .00349411,0.00530258,0.00553051,0.00004265,-0.00192378,-0.00317556,0.0
 0160216,-0.00227977,-0.00180713,-0.00044893,-0.15103709,0.10785227,-0.
 18897685,-0.00629524,-0.00439728,0.00107305,0.00188782,0.00213107,-0.0
 0025811,0.00466540,0.00205900,0.00030365,0.02970274,-0.02122201,0.0469
 0605,0.13797079,-0.10178048,0.15713797,-0.05419423,0.01771969,-0.01106
 653,-0.01688182,-0.00308334,-0.00288243,0.00488725,0.00154097,-0.00022
 173,0.00453861,0.00154175,0.00256941,-0.00301560,-0.00059378,0.0127655
 0,0.01316650,0.00241621,0.00456856,-0.00335276,-0.00309543,-0.00088091
 ,-0.00773050,0.00195500,-0.00101712,0.00211063,0.00031126,-0.00399115,
 -0.00073360,0.00050282,-0.00481737,0.60548192,0.01547190,-0.05674587,-
 0.00737336,0.01102818,0.01334776,-0.00581847,0.00058548,-0.00939998,0.
 00368207,-0.00475082,-0.00292386,0.00011044,-0.00442433,0.00552361,-0.
 01764487,-0.00868507,-0.01612496,-0.00182019,0.00248143,0.00463653,-0.
 00067571,0.00349845,0.00302081,0.00149796,-0.00042096,-0.00090836,0.00
 614634,0.00515147,-0.00621367,0.00546516,0.10198013,0.70682240,-0.0115
 8643,-0.00816038,-0.05595134,0.00344836,0.00092468,0.00373280,-0.00179
 956,0.00120957,-0.00125552,-0.00086064,-0.00060147,-0.00141959,0.00507
 256,-0.00414846,-0.00961911,-0.00711580,-0.00275720,-0.00344256,0.0016
 4982,0.00147912,0.00079574,0.00481470,-0.00221878,0.00050466,-0.001306
 30,0.00041729,0.00161687,0.00135066,-0.00009099,0.00116909,-0.27199753
 ,-0.13474256,0.31542854,0.00946323,0.00680597,0.00264180,0.00160624,-0
 .00151335,0.00471429,-0.00502927,0.00382412,-0.00129659,-0.00163127,-0
 .00011890,-0.00204333,0.00032115,0.00003523,-0.00274300,-0.00299421,-0
 .00081567,-0.00107923,0.00105199,0.00114702,0.00013699,0.00206402,-0.0
 0021939,0.00027260,-0.00029812,-0.00019932,0.00096605,0.00001328,-0.00
 035176,0.00136530,-0.11210961,-0.07337322,0.04697785,0.14455975,-0.011
 54544,-0.01474085,0.01035763,-0.00665565,-0.00665598,0.00415368,0.0012
 1748,0.00591551,-0.00259623,0.00307739,0.00160903,-0.00022754,0.003184
 25,-0.00283093,0.00869295,0.00440459,0.00439407,0.00041985,-0.00152474
 ,-0.00133943,0.00031556,-0.00129811,-0.00161787,-0.00111301,-0.0003423
 3,0.00064622,-0.00294314,-0.00381688,0.00398048,-0.00393448,-0.0802856
 8,-0.53862371,0.11096879,0.15665212,0.58803776,0.00516969,0.00005215,0
 .01271989,-0.00018137,0.00218797,-0.00263107,0.00141782,-0.00226952,0.
 00104438,0.00022375,-0.00047004,0.00106208,-0.00375666,0.00240642,-0.0
 0024303,0.00190347,-0.00019638,0.00113674,-0.00051604,-0.00027446,-0.0
 0030413,-0.00167191,0.00065532,-0.00024552,0.00140615,-0.00040515,-0.0
 0030320,0.00185754,-0.00310476,-0.00076587,0.04867610,0.11100984,-0.08
 886770,-0.09051152,-0.16641991,0.09161159,-0.01034518,-0.01071635,0.01
 484937,0.00502634,0.00176226,0.00182897,-0.00184704,-0.00000664,-0.000
 21554,-0.00142786,-0.00079433,-0.00101939,-0.00023487,0.00126068,-0.00
 602641,-0.00869543,-0.00088115,-0.00459236,0.00222208,0.00095050,0.001
 18086,0.00716537,-0.00226232,0.00045572,-0.00044458,-0.00063539,0.0020
 3290,0.00121418,-0.00044671,0.00269754,-0.44595088,-0.04600742,0.22851
 732,-0.03348574,-0.07424205,0.03738747,0.49356129,0.00882157,0.0087598
 7,-0.00375496,-0.00252625,-0.00347556,0.00155343,0.00003077,0.00269842
 ,-0.00092091,0.00131607,0.00101419,-0.00007392,0.00132964,-0.00150454,
 0.00407355,0.00093394,0.00303534,-0.00177530,-0.00069353,-0.00147694,0
 .00059233,0.00108325,-0.00308108,-0.00084022,0.00007755,0.00037219,-0.
 00172361,-0.00124599,0.00146403,-0.00173010,-0.04100142,-0.11931051,0.
 03276380,-0.09270356,-0.02852455,0.05723608,0.12130860,0.14676779,0.01
 309260,0.00692695,0.00663868,-0.00221060,-0.00090462,-0.00154378,0.001
 08292,-0.00034961,0.00033493,0.00074054,0.00051193,0.00077283,0.000488
 31,-0.00046442,0.00354398,0.00174673,0.00174479,0.00032704,-0.00062610
 ,-0.00141868,-0.00002628,-0.00152069,-0.00087111,-0.00073318,-0.000066
 23,0.00034589,-0.00078964,-0.00122130,0.00035758,-0.00157757,0.2272110
 0,0.03591447,-0.17896585,0.04062594,0.04782945,-0.01145886,-0.27801644
 ,-0.08493014,0.18697878,-0.05324198,0.00734712,0.01839965,0.01218666,0
 .00297745,0.00692431,-0.00324465,-0.00250895,-0.00098488,-0.00670550,0
 .00297014,-0.00393508,-0.00449333,0.00691211,-0.01121848,-0.01646346,-
 0.00273868,-0.00176615,0.00351406,0.00186053,-0.00042139,0.00404769,0.
 00082940,0.00166027,-0.00005272,-0.00249517,0.00401745,0.00244843,-0.0
 0191357,0.00368198,0.01539666,0.00570824,0.00223215,-0.00146318,-0.002
 07296,-0.00132932,0.00448725,-0.00499683,-0.00432965,0.64330257,0.0102
 0410,-0.06460995,0.00273898,-0.01098554,-0.01604964,-0.00367452,0.0033
 6533,0.00479359,-0.00106833,0.00520650,0.00301740,0.00278998,-0.000778
 72,-0.00805176,0.01934150,0.01043667,0.01244893,-0.00057421,-0.0022757
 5,-0.00780394,-0.00004263,-0.00473630,-0.00269864,-0.00083921,0.005276
 26,-0.00320538,-0.00735037,-0.00086596,0.00262703,-0.00548304,0.004420
 69,0.01386041,-0.00294333,-0.00429360,0.00723068,0.00145887,-0.0023877
 0,-0.00033112,0.00097891,-0.05402514,0.46514831,0.01814782,0.00470853,
 -0.05079795,-0.00084344,-0.00477198,0.00326548,0.00067547,0.00075306,-
 0.00132523,-0.00139426,0.00322902,-0.00156413,-0.00758569,0.00489934,0
 .00594136,0.00288277,0.00782527,-0.00222300,0.00143725,-0.00658491,-0.
 00015809,-0.00162645,-0.00150048,0.00063499,0.00234549,-0.00182613,-0.
 00480846,0.00111431,0.00027736,-0.00227340,0.00109516,-0.00217427,0.02
 082751,-0.00053436,-0.00097236,-0.00383487,-0.00448992,0.00234041,-0.0
 0177900,0.28117669,0.22959739,0.51906661,-0.00952297,-0.00036232,-0.01
 810673,-0.00652362,-0.00346667,-0.00604393,0.00179693,0.00180222,0.000
 94486,0.00527061,-0.00107729,0.00320613,0.00048070,-0.00213089,0.00583
 059,0.00467058,0.00304517,0.00065620,-0.00176291,-0.00109488,0.0006444
 9,-0.00122646,-0.00108503,-0.00065371,0.00089505,0.00123654,-0.0023845
 9,-0.00064699,0.00058553,-0.00221799,0.00490895,-0.00489650,0.00201198
 ,-0.00308072,0.01038492,-0.00019022,-0.00949465,0.00443974,0.00410487,
 -0.47248563,0.09073584,-0.20039140,0.52871442,0.01389164,0.00937066,0.
 00525119,0.00206461,0.00423412,-0.00130958,-0.00135390,-0.00226599,0.0
 0126933,0.00016175,-0.00370469,-0.00040807,0.00132519,0.00141284,-0.00
 569034,-0.00316223,-0.00338087,-0.00014154,0.00109259,0.00199856,-0.00
 007452,0.00169083,0.00102008,0.00054343,-0.00168341,0.00019271,0.00289
 347,0.00000767,-0.00059300,0.00197488,-0.00652157,0.00096271,-0.000311
 04,0.00298473,-0.00759205,-0.00006105,0.00597855,-0.00211550,-0.002337
 07,0.09487342,-0.10672238,0.01138734,-0.05478681,0.08113767,-0.0053348
 8,-0.00470659,0.00736763,-0.00244212,0.00066321,-0.00351295,0.00045106
 ,-0.00008486,0.00102390,0.00243364,-0.00311635,0.00212317,0.00048635,-
 0.00060423,-0.00019669,0.00019949,-0.00183963,0.00092792,-0.00040418,0
 .00190102,0.00015106,0.00035282,0.00035437,-0.00029283,0.00019035,0.00
 077795,0.00028662,0.00009598,-0.00027172,0.00034424,0.00026266,0.00114
 031,-0.00307544,-0.00036151,0.00134264,0.00065341,-0.00018084,-0.00014
 435,0.00079734,-0.19923890,0.00802804,-0.16880205,0.28686611,0.0175656
 9,0.21781761,0.00876521,0.00720149,0.00134444,-0.00301213,-0.00064196,
 -0.00179607,0.00102136,0.00073129,0.00028935,0.00200079,-0.00073892,0.
 00106374,0.00098885,-0.00112981,0.00221579,0.00124980,-0.00203909,0.00
 326711,-0.00280067,0.00264071,0.00071590,-0.00123304,0.00026061,-0.001
 14890,-0.00040222,0.00054991,-0.00102023,-0.00040493,0.00036599,-0.000
 97149,-0.00158304,-0.00387744,-0.00180762,-0.00009261,0.00248881,0.000
 44030,-0.00243681,0.00185693,0.00188724,-0.12318589,-0.04976635,-0.091
 67275,-0.04327084,-0.05687274,-0.08572628,0.16341956,-0.00874741,-0.00
 441465,-0.01966369,0.00391135,0.00388319,0.00089833,-0.00132537,-0.001
 12924,0.00024284,-0.00134405,-0.00126865,-0.00073302,0.00069397,0.0017
 8197,-0.00681354,-0.00398057,-0.00814871,0.00172962,-0.00022239,0.0065
 6091,0.00000668,0.00157631,0.00205646,-0.00034659,-0.00205070,-0.00150
 267,0.00460587,0.00043892,-0.00113387,0.00245069,-0.00191993,0.0040757
 8,0.00619233,0.00265758,-0.01023455,-0.00138388,0.00808937,-0.00382169
 ,-0.00509666,-0.05534383,-0.29929300,-0.24533854,-0.04210077,0.0255955
 5,-0.01994553,0.09947007,0.28689768,-0.01183851,-0.01121623,0.00025001
 ,0.00158625,0.00240635,-0.00089797,-0.00070186,-0.00058390,0.00058875,
 0.00020316,-0.00154658,0.00026664,0.00592987,-0.00002971,-0.00720078,-
 0.00204359,-0.00383519,0.00076673,0.00081036,0.00310065,-0.00022742,0.
 00143414,0.00066401,-0.00002609,-0.00420878,0.00474028,0.00365311,-0.0
 0172635,-0.00011942,0.00162821,0.00002767,0.00435779,-0.00047624,0.001
 31275,-0.00593379,0.00010299,0.00606456,-0.00322327,-0.00300172,-0.095
 90338,-0.24266684,-0.31084962,-0.07405486,-0.02977818,-0.05517301,0.17
 273743,0.28331020,0.37015109,-0.01430351,0.00156326,-0.00190954,-0.005
 04459,-0.00020714,-0.00292271,0.00100895,-0.00049237,0.00128473,-0.001
 01537,-0.00290173,0.00555032,0.00739433,0.00052514,-0.00003457,-0.0011
 7278,-0.00328760,-0.00184600,-0.00045383,0.00156269,-0.00233616,0.0002
 2641,0.00059636,0.00028880,-0.00037863,-0.00009800,-0.00196340,-0.0004
 0049,-0.00103645,0.00149667,-0.00493848,0.00053048,0.00039850,0.001105
 07,0.00037430,-0.00032524,0.00068654,0.00196953,-0.00298914,-0.0040469
 7,0.00046967,-0.00033668,0.00127757,0.00030967,0.00235024,0.00097661,0
 .00019746,0.00037115,0.01907917,0.00264285,-0.01816574,0.01705224,-0.0
 0315584,-0.00050622,-0.00095217,0.00044817,-0.00017314,0.00050785,-0.0
 0022695,-0.00114062,0.00304256,0.00007158,0.00956656,-0.00285458,-0.00
 056241,-0.00468175,0.00015012,-0.00139076,0.00153571,-0.00338893,-0.00
 024032,0.00131818,-0.00035200,-0.00199562,-0.00173715,0.00374609,0.000
 97147,-0.00267829,0.00180893,0.00411262,-0.00199910,0.00201862,-0.0005
 1799,0.00034616,-0.00042151,-0.00096993,-0.00047037,0.00176234,0.00261
 671,-0.00036056,-0.00184903,-0.00122881,0.00044958,-0.00105995,-0.0004
 9949,0.00009550,0.00035383,-0.00007527,0.01860126,-0.00292757,0.016904
 84,-0.07993215,0.00052249,0.00098898,-0.00054333,0.00038164,-0.0002039
 0,0.00076720,0.00164179,0.00124054,-0.00074440,0.00098436,-0.00423527,
 0.02106772,-0.00065720,-0.00138504,-0.00081586,-0.00176390,-0.00040736
 ,-0.00192824,-0.00029037,-0.00031139,0.00016635,0.00600431,0.00051173,
 -0.01387498,-0.00659441,0.00609942,-0.01241223,-0.00030130,0.00092505,
 -0.00100187,-0.00044405,0.00005993,0.00032320,-0.00047381,0.00055717,0
 .00048232,0.00103475,-0.00029119,-0.00132015,-0.00022180,-0.00077396,-
 0.00043993,0.00018205,-0.00011511,0.00044532,0.00292303,-0.01956442,0.
 08976105\\0.00000531,0.00000100,0.00000046,-0.00000335,0.00000128,-0.0
 0000492,-0.00001215,0.00001481,-0.00000690,0.00000723,0.00001348,-0.00
 000954,-0.00000506,-0.00000407,0.00000202,0.00000274,0.00000015,0.0000
 0164,0.00001089,-0.00001202,0.00000267,0.00000620,-0.00001572,0.000013
 33,-0.00001411,0.00000808,-0.00000370,-0.00002313,0.00000450,0.0000054
 1,-0.00000519,-0.00000552,0.00000538,-0.00000757,-0.00001081,0.0000114
 5,0.00000498,-0.00000689,0.00001506,-0.00000407,0.00000387,-0.00001411
 ,0.00000995,0.00001113,-0.00001308,0.00001396,0.00000702,-0.00000265,0
 .00001337,-0.00001029,-0.00000253\\\@


 A SOLDIER'S LIFE IS A LIFE OF HONOR, BUT A DOG WOULD NOT LEAD IT.
 -- PRINCE RUPERT, FOUNDER OF THE HUDSON'S BAY COMPANY
 Job cpu time:  0 days  3 hours 16 minutes 25.7 seconds.
 File lengths (MBytes):  RWF=    235 Int=      0 D2E=      0 Chk=      9 Scr=      1
 Normal termination of Gaussian 09 at Wed Dec  1 07:20:08 2021.
