 Entering Gaussian System, Link 0=g09
 Input=estrutura67_D2O.com
 Output=estrutura67_D2O.log
 Initial command:
 /home/scr/programs/g09/l1.exe "/home/scr/diego/Gau-4081.inp" -scrdir="/home/scr/diego/"
 Entering Link 1 = /home/scr/programs/g09/l1.exe PID=      4083.
  
 Copyright (c) 1988,1990,1992,1993,1995,1998,2003,2009,2013,
            Gaussian, Inc.  All Rights Reserved.
  
 This is part of the Gaussian(R) 09 program.  It is based on
 the Gaussian(R) 03 system (copyright 2003, Gaussian, Inc.),
 the Gaussian(R) 98 system (copyright 1998, Gaussian, Inc.),
 the Gaussian(R) 94 system (copyright 1995, Gaussian, Inc.),
 the Gaussian 92(TM) system (copyright 1992, Gaussian, Inc.),
 the Gaussian 90(TM) system (copyright 1990, Gaussian, Inc.),
 the Gaussian 88(TM) system (copyright 1988, Gaussian, Inc.),
 the Gaussian 86(TM) system (copyright 1986, Carnegie Mellon
 University), and the Gaussian 82(TM) system (copyright 1983,
 Carnegie Mellon University). Gaussian is a federally registered
 trademark of Gaussian, Inc.
  
 This software contains proprietary and confidential information,
 including trade secrets, belonging to Gaussian, Inc.
  
 This software is provided under written license and may be
 used, copied, transmitted, or stored only in accord with that
 written license.
  
 The following legend is applicable only to US Government
 contracts under FAR:
  
                    RESTRICTED RIGHTS LEGEND
  
 Use, reproduction and disclosure by the US Government is
 subject to restrictions as set forth in subparagraphs (a)
 and (c) of the Commercial Computer Software - Restricted
 Rights clause in FAR 52.227-19.
  
 Gaussian, Inc.
 340 Quinnipiac St., Bldg. 40, Wallingford CT 06492
  
  
 ---------------------------------------------------------------
 Warning -- This program may not be used in any manner that
 competes with the business of Gaussian, Inc. or will provide
 assistance to any competitor of Gaussian, Inc.  The licensee
 of this program is prohibited from giving any competitor of
 Gaussian, Inc. access to this program.  By using this program,
 the user acknowledges that Gaussian, Inc. is engaged in the
 business of creating and licensing software in the field of
 computational chemistry and represents and warrants to the
 licensee that it is not a competitor of Gaussian, Inc. and that
 it will not use this program in any manner prohibited above.
 ---------------------------------------------------------------
  

 Cite this work as:
 Gaussian 09, Revision D.01,
 M. J. Frisch, G. W. Trucks, H. B. Schlegel, G. E. Scuseria, 
 M. A. Robb, J. R. Cheeseman, G. Scalmani, V. Barone, B. Mennucci, 
 G. A. Petersson, H. Nakatsuji, M. Caricato, X. Li, H. P. Hratchian, 
 A. F. Izmaylov, J. Bloino, G. Zheng, J. L. Sonnenberg, M. Hada, 
 M. Ehara, K. Toyota, R. Fukuda, J. Hasegawa, M. Ishida, T. Nakajima, 
 Y. Honda, O. Kitao, H. Nakai, T. Vreven, J. A. Montgomery, Jr., 
 J. E. Peralta, F. Ogliaro, M. Bearpark, J. J. Heyd, E. Brothers, 
 K. N. Kudin, V. N. Staroverov, T. Keith, R. Kobayashi, J. Normand, 
 K. Raghavachari, A. Rendell, J. C. Burant, S. S. Iyengar, J. Tomasi, 
 M. Cossi, N. Rega, J. M. Millam, M. Klene, J. E. Knox, J. B. Cross, 
 V. Bakken, C. Adamo, J. Jaramillo, R. Gomperts, R. E. Stratmann, 
 O. Yazyev, A. J. Austin, R. Cammi, C. Pomelli, J. W. Ochterski, 
 R. L. Martin, K. Morokuma, V. G. Zakrzewski, G. A. Voth, 
 P. Salvador, J. J. Dannenberg, S. Dapprich, A. D. Daniels, 
 O. Farkas, J. B. Foresman, J. V. Ortiz, J. Cioslowski, 
 and D. J. Fox, Gaussian, Inc., Wallingford CT, 2013.
 
 ******************************************
 Gaussian 09:  EM64L-G09RevD.01 24-Apr-2013
                18-Aug-2021 
 ******************************************
 %mem=15gb
 %nproc=8
 Will use up to    8 processors via shared memory.
 ------------------------------------------------------------
 #b3lyp/gen pseudo=read opt freq=noraman scrf=(solvent=water)
 ------------------------------------------------------------
 1/14=-1,18=20,19=15,26=3,38=1/1,3;
 2/9=110,12=2,17=6,18=5,40=1/2;
 3/5=7,11=2,16=1,17=8,25=1,30=1,70=2201,71=1,72=1,74=-5/1,2,3;
 4//1;
 5/5=2,38=5,53=1/2;
 6/7=2,8=2,9=2,10=2,28=1/1;
 7//1,2,3,16;
 1/14=-1,18=20,19=15,26=3/3(2);
 2/9=110/2;
 99//99;
 2/9=110/2;
 3/5=7,6=1,11=2,16=1,17=8,25=1,30=1,70=2205,71=1,72=1,74=-5,82=7/1,2,3;
 4/5=5,16=3,69=1/1;
 5/5=2,38=5,53=1/2;
 7//1,2,3,16;
 1/14=-1,18=20,19=15,26=3/3(-5);
 2/9=110/2;
 6/7=2,8=2,9=2,10=2,19=2,28=1/1;
 99/9=1/99;
 ------------
 Estrutura 67
 ------------
 Symbolic Z-matrix:
 Charge = -2 Multiplicity = 1
 Pt                   -0.31955   0.33835   0. 
 N                     1.67045   0.33835   0. 
 O                     2.12378   1.35457  -0.7819 
 O                     2.12378   0.50738   1.27103 
 N                    -0.31955   2.32835   0. 
 N                    -2.30955   0.33835   0. 
 O                    -2.76288  -0.04279   1.22426 
 O                    -2.76288   1.58916  -0.28206 
 O                     0.38494   2.78168   1.07135 
 O                     0.25602   2.78168  -1.14578 
 N                    -0.31955   0.33835  -1.99 
 O                     0.52851  -0.62336  -2.44333 
 O                    -1.57644   0.08476  -2.44333 
 Br                   -0.31955  -2.09165   0. 
 N                    -0.31955   0.33835   1.99 
 O                    -1.0271   -0.73098   2.44333 
 O                    -0.89184   1.48576   2.44333 
 

 GradGradGradGradGradGradGradGradGradGradGradGradGradGradGradGradGradGrad
 Berny optimization.
 Initialization pass.
                           ----------------------------
                           !    Initial Parameters    !
                           ! (Angstroms and Degrees)  !
 --------------------------                            --------------------------
 ! Name  Definition              Value          Derivative Info.                !
 --------------------------------------------------------------------------------
 ! R1    R(1,2)                  1.99           estimate D2E/DX2                !
 ! R2    R(1,5)                  1.99           estimate D2E/DX2                !
 ! R3    R(1,6)                  1.99           estimate D2E/DX2                !
 ! R4    R(1,11)                 1.99           estimate D2E/DX2                !
 ! R5    R(1,14)                 2.43           estimate D2E/DX2                !
 ! R6    R(1,15)                 1.99           estimate D2E/DX2                !
 ! R7    R(2,3)                  1.36           estimate D2E/DX2                !
 ! R8    R(2,4)                  1.36           estimate D2E/DX2                !
 ! R9    R(5,9)                  1.36           estimate D2E/DX2                !
 ! R10   R(5,10)                 1.36           estimate D2E/DX2                !
 ! R11   R(6,7)                  1.36           estimate D2E/DX2                !
 ! R12   R(6,8)                  1.36           estimate D2E/DX2                !
 ! R13   R(11,12)                1.36           estimate D2E/DX2                !
 ! R14   R(11,13)                1.36           estimate D2E/DX2                !
 ! R15   R(15,16)                1.36           estimate D2E/DX2                !
 ! R16   R(15,17)                1.36           estimate D2E/DX2                !
 ! A1    A(2,1,5)               90.0            estimate D2E/DX2                !
 ! A2    A(2,1,11)              90.0            estimate D2E/DX2                !
 ! A3    A(2,1,14)              90.0            estimate D2E/DX2                !
 ! A4    A(2,1,15)              90.0            estimate D2E/DX2                !
 ! A5    A(5,1,6)               90.0            estimate D2E/DX2                !
 ! A6    A(5,1,11)              90.0            estimate D2E/DX2                !
 ! A7    A(5,1,15)              90.0            estimate D2E/DX2                !
 ! A8    A(6,1,11)              90.0            estimate D2E/DX2                !
 ! A9    A(6,1,14)              90.0            estimate D2E/DX2                !
 ! A10   A(6,1,15)              90.0            estimate D2E/DX2                !
 ! A11   A(11,1,14)             90.0            estimate D2E/DX2                !
 ! A12   A(14,1,15)             90.0            estimate D2E/DX2                !
 ! A13   A(1,2,3)              109.4712         estimate D2E/DX2                !
 ! A14   A(1,2,4)              109.4712         estimate D2E/DX2                !
 ! A15   A(3,2,4)              109.4713         estimate D2E/DX2                !
 ! A16   A(1,5,9)              109.4712         estimate D2E/DX2                !
 ! A17   A(1,5,10)             109.4712         estimate D2E/DX2                !
 ! A18   A(9,5,10)             109.4713         estimate D2E/DX2                !
 ! A19   A(1,6,7)              109.4712         estimate D2E/DX2                !
 ! A20   A(1,6,8)              109.4712         estimate D2E/DX2                !
 ! A21   A(7,6,8)              109.4713         estimate D2E/DX2                !
 ! A22   A(1,11,12)            109.4712         estimate D2E/DX2                !
 ! A23   A(1,11,13)            109.4712         estimate D2E/DX2                !
 ! A24   A(12,11,13)           109.4713         estimate D2E/DX2                !
 ! A25   A(1,15,16)            109.4712         estimate D2E/DX2                !
 ! A26   A(1,15,17)            109.4712         estimate D2E/DX2                !
 ! A27   A(16,15,17)           109.4713         estimate D2E/DX2                !
 ! A28   L(2,1,6,5,-1)         180.0            estimate D2E/DX2                !
 ! A29   L(5,1,14,2,-1)        180.0            estimate D2E/DX2                !
 ! A30   L(11,1,15,2,-1)       180.0            estimate D2E/DX2                !
 ! A31   L(2,1,6,5,-2)         180.0            estimate D2E/DX2                !
 ! A32   L(5,1,14,2,-2)        180.0            estimate D2E/DX2                !
 ! A33   L(11,1,15,2,-2)       180.0            estimate D2E/DX2                !
 ! D1    D(5,1,2,3)            -37.5752         estimate D2E/DX2                !
 ! D2    D(5,1,2,4)             82.4248         estimate D2E/DX2                !
 ! D3    D(11,1,2,3)            52.4248         estimate D2E/DX2                !
 ! D4    D(11,1,2,4)           172.4248         estimate D2E/DX2                !
 ! D5    D(14,1,2,3)           142.4248         estimate D2E/DX2                !
 ! D6    D(14,1,2,4)           -97.5752         estimate D2E/DX2                !
 ! D7    D(15,1,2,3)          -127.5752         estimate D2E/DX2                !
 ! D8    D(15,1,2,4)            -7.5752         estimate D2E/DX2                !
 ! D9    D(3,2,6,7)           -144.8676         estimate D2E/DX2                !
 ! D10   D(3,2,6,8)            -24.8676         estimate D2E/DX2                !
 ! D11   D(4,2,6,7)            -24.8676         estimate D2E/DX2                !
 ! D12   D(4,2,6,8)             95.1324         estimate D2E/DX2                !
 ! D13   D(2,1,5,9)            -56.6723         estimate D2E/DX2                !
 ! D14   D(2,1,5,10)            63.3277         estimate D2E/DX2                !
 ! D15   D(6,1,5,9)            123.3277         estimate D2E/DX2                !
 ! D16   D(6,1,5,10)          -116.6723         estimate D2E/DX2                !
 ! D17   D(11,1,5,9)          -146.6723         estimate D2E/DX2                !
 ! D18   D(11,1,5,10)          -26.6723         estimate D2E/DX2                !
 ! D19   D(15,1,5,9)            33.3277         estimate D2E/DX2                !
 ! D20   D(15,1,5,10)          153.3277         estimate D2E/DX2                !
 ! D21   D(5,1,6,7)           -107.2924         estimate D2E/DX2                !
 ! D22   D(5,1,6,8)             12.7076         estimate D2E/DX2                !
 ! D23   D(11,1,6,7)           162.7076         estimate D2E/DX2                !
 ! D24   D(11,1,6,8)           -77.2924         estimate D2E/DX2                !
 ! D25   D(14,1,6,7)            72.7076         estimate D2E/DX2                !
 ! D26   D(14,1,6,8)          -167.2924         estimate D2E/DX2                !
 ! D27   D(15,1,6,7)           -17.2924         estimate D2E/DX2                !
 ! D28   D(15,1,6,8)           102.7076         estimate D2E/DX2                !
 ! D29   D(2,1,11,12)           48.5934         estimate D2E/DX2                !
 ! D30   D(2,1,11,13)          168.5934         estimate D2E/DX2                !
 ! D31   D(5,1,11,12)          138.5934         estimate D2E/DX2                !
 ! D32   D(5,1,11,13)         -101.4066         estimate D2E/DX2                !
 ! D33   D(6,1,11,12)         -131.4066         estimate D2E/DX2                !
 ! D34   D(6,1,11,13)          -11.4066         estimate D2E/DX2                !
 ! D35   D(14,1,11,12)         -41.4066         estimate D2E/DX2                !
 ! D36   D(14,1,11,13)          78.5934         estimate D2E/DX2                !
 ! D37   D(12,11,15,16)        -74.8982         estimate D2E/DX2                !
 ! D38   D(12,11,15,17)        165.1018         estimate D2E/DX2                !
 ! D39   D(13,11,15,16)         45.1018         estimate D2E/DX2                !
 ! D40   D(13,11,15,17)        -74.8982         estimate D2E/DX2                !
 ! D41   D(2,1,15,16)         -123.4916         estimate D2E/DX2                !
 ! D42   D(2,1,15,17)          116.5084         estimate D2E/DX2                !
 ! D43   D(5,1,15,16)          146.5084         estimate D2E/DX2                !
 ! D44   D(5,1,15,17)           26.5084         estimate D2E/DX2                !
 ! D45   D(6,1,15,16)           56.5084         estimate D2E/DX2                !
 ! D46   D(6,1,15,17)          -63.4916         estimate D2E/DX2                !
 ! D47   D(14,1,15,16)         -33.4916         estimate D2E/DX2                !
 ! D48   D(14,1,15,17)        -153.4916         estimate D2E/DX2                !
 --------------------------------------------------------------------------------
 Trust Radius=3.00D-01 FncErr=1.00D-07 GrdErr=1.00D-06
 Number of steps in this run=    102 maximum allowed number of steps=    102.
 GradGradGradGradGradGradGradGradGradGradGradGradGradGradGradGradGradGrad

                          Input orientation:                          
 ---------------------------------------------------------------------
 Center     Atomic      Atomic             Coordinates (Angstroms)
 Number     Number       Type             X           Y           Z
 ---------------------------------------------------------------------
      1         78           0       -0.319549    0.338346    0.000000
      2          7           0        1.670451    0.338346    0.000000
      3          8           0        2.123784    1.354574   -0.781901
      4          8           0        2.123784    0.507377    1.271030
      5          7           0       -0.319549    2.328346    0.000000
      6          7           0       -2.309549    0.338346    0.000000
      7          8           0       -2.762882   -0.042792    1.224264
      8          8           0       -2.762882    1.589159   -0.282057
      9          8           0        0.384937    2.781679    1.071349
     10          8           0        0.256023    2.781679   -1.145778
     11          7           0       -0.319549    0.338346   -1.990000
     12          8           0        0.528510   -0.623364   -2.443333
     13          8           0       -1.576443    0.084760   -2.443333
     14         35           0       -0.319549   -2.091654    0.000000
     15          7           0       -0.319549    0.338346    1.990000
     16          8           0       -1.027096   -0.730984    2.443333
     17          8           0       -0.891841    1.485765    2.443333
 ---------------------------------------------------------------------
                    Distance matrix (angstroms):
                    1          2          3          4          5
     1  Pt   0.000000
     2  N    1.990000   0.000000
     3  O    2.759341   1.360000   0.000000
     4  O    2.759341   1.360000   2.220871   0.000000
     5  N    1.990000   2.814285   2.743989   3.301715   0.000000
     6  N    1.990000   3.980000   4.615033   4.615033   2.814285
     7  O    2.759341   4.615033   5.464141   4.917761   3.618148
     8  O    2.759341   4.615033   4.917761   5.240404   2.568235
     9  O    2.759341   2.961454   2.914576   2.869827   1.360000
    10  O    2.759341   3.046849   2.378564   3.808141   1.360000
    11  N    1.990000   2.814285   2.908969   4.078329   2.814285
    12  O    2.759341   2.863353   3.036033   4.197615   3.924496
    13  O    2.759341   4.071425   4.250231   5.259922   3.547300
    14  Br   2.430000   3.140860   4.296247   3.786867   4.420000
    15  N    1.990000   2.814285   3.832236   2.552521   2.814285
    16  O    2.759341   3.793429   4.967870   3.582720   3.978693
    17  O    2.759341   3.721799   4.417391   3.380168   2.647138
                    6          7          8          9         10
     6  N    0.000000
     7  O    1.360000   0.000000
     8  O    1.360000   2.220871   0.000000
     9  O    3.791823   4.231995   3.628027   0.000000
    10  O    3.723552   4.765346   3.358854   2.220871   0.000000
    11  N    2.814285   4.055445   3.232874   3.979703   2.648371
    12  O    3.866438   4.962015   4.516595   4.895704   3.654068
    13  O    2.563518   3.856835   2.888246   4.844933   3.509267
    14  Br   3.140860   3.415631   4.426942   5.039193   5.039193
    15  N    2.814285   2.588724   3.563236   2.703719   4.016747
    16  O    2.959396   2.229952   3.977910   4.026782   5.183330
    17  O    3.048990   2.706179   3.307451   2.278573   3.984809
                   11         12         13         14         15
    11  N    0.000000
    12  O    1.360000   0.000000
    13  O    1.360000   2.220871   0.000000
    14  Br   3.140860   2.974047   3.505202   0.000000
    15  N    3.980000   4.615033   4.615033   3.140860   0.000000
    16  O    4.615033   5.129425   4.984649   2.884774   1.360000
    17  O    4.615033   5.508659   5.129425   4.369819   1.360000
                   16         17
    16  O    0.000000
    17  O    2.220871   0.000000
 Stoichiometry    BrN5O10Pt(2-)
 Framework group  C1[X(BrN5O10Pt)]
 Deg. of freedom    45
 Full point group                 C1      NOp   1
 Largest Abelian subgroup         C1      NOp   1
 Largest concise Abelian subgroup C1      NOp   1
                         Standard orientation:                         
 ---------------------------------------------------------------------
 Center     Atomic      Atomic             Coordinates (Angstroms)
 Number     Number       Type             X           Y           Z
 ---------------------------------------------------------------------
      1         78           0       -0.104154   -0.041509    0.040288
      2          7           0       -0.563947   -1.129558   -1.561223
      3          8           0       -1.586467   -1.973322   -1.257715
      4          8           0       -0.941585   -0.306086   -2.575563
      5          7           0       -2.032760    0.070682    0.517769
      6          7           0        0.355640    1.046540    1.641799
      7          8           0        0.724699    2.295655    1.250508
      8          8           0       -0.727635    1.129294    2.459886
      9          8           0       -2.726822    0.606051   -0.522067
     10          8           0       -2.506767   -1.175630    0.785395
     11          7           0        0.066624   -1.703935    1.120692
     12          8           0        0.841622   -2.600547    0.453561
     13          8           0        0.641699   -1.409724    2.317492
     14         35           0        2.250879   -0.178506   -0.542767
     15          7           0       -0.274931    1.620918   -1.040116
     16          8           0        0.885985    2.326199   -0.973394
     17          8           0       -1.293626    2.377222   -0.550357
 ---------------------------------------------------------------------
 Rotational constants (GHZ):      0.4452718      0.3819297      0.3504857
 General basis read from cards:  (5D, 7F)
 ======================================================================================================
                                       Pseudopotential Parameters
 ======================================================================================================
  Center     Atomic      Valence      Angular      Power
  Number     Number     Electrons     Momentum     of R      Exponent        Coefficient   SO-Coeffient
 ======================================================================================================
    1         78           18
                                      G and up 
                                                     1      728.9394056       -0.16192680    0.00000000
                                                     2      320.6567800    -1320.28738520    0.00000000
                                                     2       52.8680174     -298.31781350    0.00000000
                                                     2       12.0280128      -87.58370650    0.00000000
                                                     2        3.5238913       -8.14932740    0.00000000
                                      S - G
                                                     0      409.4437358        2.73342180    0.00000000
                                                     1      274.5419231       59.70243290    0.00000000
                                                     2      127.5658570      891.45895500    0.00000000
                                                     2       32.9036631      368.44676560    0.00000000
                                                     2        5.0593880      238.02630900    0.00000000
                                                     2        4.1506556     -107.05564540    0.00000000
                                      P - G
                                                     0      466.1728892        1.88785680    0.00000000
                                                     1      120.7888259       76.01386290    0.00000000
                                                     2       36.4118791      343.55111160    0.00000000
                                                     2        5.6985408      119.49117860    0.00000000
                                      D - G
                                                     0      249.5650763        2.93436780    0.00000000
                                                     1      126.6678585       59.33065710    0.00000000
                                                     2       63.1430586      452.44451940    0.00000000
                                                     2       17.9059470      210.47694790    0.00000000
                                                     2        4.2239373       58.62541120    0.00000000
                                      F - G
                                                     0      121.8158799        3.95342530    0.00000000
                                                     1       60.8757030       53.85551820    0.00000000
                                                     2       31.4767147      247.43051330    0.00000000
                                                     2        9.8811751      127.81879760    0.00000000
                                                     2        2.7319874       15.37720460    0.00000000
    2          7
                                   No pseudopotential on this center.
    3          8
                                   No pseudopotential on this center.
    4          8
                                   No pseudopotential on this center.
    5          7
                                   No pseudopotential on this center.
    6          7
                                   No pseudopotential on this center.
    7          8
                                   No pseudopotential on this center.
    8          8
                                   No pseudopotential on this center.
    9          8
                                   No pseudopotential on this center.
   10          8
                                   No pseudopotential on this center.
   11          7
                                   No pseudopotential on this center.
   12          8
                                   No pseudopotential on this center.
   13          8
                                   No pseudopotential on this center.
   14         35
                                   No pseudopotential on this center.
   15          7
                                   No pseudopotential on this center.
   16          8
                                   No pseudopotential on this center.
   17          8
                                   No pseudopotential on this center.
 ======================================================================================================
 There are   284 symmetry adapted cartesian basis functions of A   symmetry.
 There are   264 symmetry adapted basis functions of A   symmetry.
   264 basis functions,   498 primitive gaussians,   284 cartesian basis functions
    85 alpha electrons       85 beta electrons
       nuclear repulsion energy      2239.8066426330 Hartrees.
 NAtoms=   17 NActive=   17 NUniq=   17 SFac= 1.00D+00 NAtFMM=   60 NAOKFM=F Big=F
 Integral buffers will be    131072 words long.
 Raffenetti 2 integral format.
 Two-electron integral symmetry is turned on.
 ------------------------------------------------------------------------------
 Polarizable Continuum Model (PCM)
 =================================
 Model                : PCM (using non-symmetric T matrix).
 Atomic radii         : UFF (Universal Force Field).
 Polarization charges : Total charges.
 Charge compensation  : None.
 Solution method      : On-the-fly selection.
 Cavity type          : Scaled VdW (van der Waals Surface) (Alpha=1.100).
 Cavity algorithm     : GePol (No added spheres)
                        Default sphere list used, NSphG=   17.
                        Lebedev-Laikov grids with approx.  5.0 points / Ang**2.
                        Smoothing algorithm: Karplus/York (Gamma=1.0000).
                        Polarization charges: spherical gaussians, with
                                              point-specific exponents (IZeta= 3).
                        Self-potential: point-specific (ISelfS= 7).
                        Self-field    : sphere-specific E.n sum rule (ISelfD= 2).
 1st derivatives      : Analytical E(r).r(x)/FMM algorithm (CHGder, D1EAlg=3).
                        Cavity 1st derivative terms included.
 Solvent              : Water, Eps=  78.355300 Eps(inf)=   1.777849
 ------------------------------------------------------------------------------
 Spheres list:
 ISph  on   Nord     Re0    Alpha      Xe            Ye            Ze
    1  Pt      1    1.3770  1.100     -0.104154     -0.041509      0.040288
    2   N      2    1.8300  1.100     -0.563947     -1.129558     -1.561223
    3   O      3    1.7500  1.100     -1.586467     -1.973322     -1.257715
    4   O      4    1.7500  1.100     -0.941585     -0.306086     -2.575563
    5   N      5    1.8300  1.100     -2.032760      0.070682      0.517769
    6   N      6    1.8300  1.100      0.355640      1.046540      1.641799
    7   O      7    1.7500  1.100      0.724699      2.295655      1.250508
    8   O      8    1.7500  1.100     -0.727635      1.129294      2.459886
    9   O      9    1.7500  1.100     -2.726822      0.606051     -0.522067
   10   O     10    1.7500  1.100     -2.506767     -1.175630      0.785395
   11   N     11    1.8300  1.100      0.066624     -1.703935      1.120692
   12   O     12    1.7500  1.100      0.841622     -2.600547      0.453561
   13   O     13    1.7500  1.100      0.641699     -1.409724      2.317492
   14  Br     14    2.0945  1.100      2.250879     -0.178506     -0.542767
   15   N     15    1.8300  1.100     -0.274931      1.620918     -1.040116
   16   O     16    1.7500  1.100      0.885985      2.326199     -0.973394
   17   O     17    1.7500  1.100     -1.293626      2.377222     -0.550357
 ------------------------------------------------------------------------------
 One-electron integrals computed using PRISM.
   1 Symmetry operations used in ECPInt.
 ECPInt:  NShTT=    6105 NPrTT=   25897 LenC2=    5766 LenP2D=   17254.
 LDataN:  DoStor=T MaxTD1= 6 Len=  172
 NBasis=   264 RedAO= T EigKep=  2.04D-03  NBF=   264
 NBsUse=   264 1.00D-06 EigRej= -1.00D+00 NBFU=   264
 Defaulting to unpruned grid for atomic number  78.
 ExpMin= 2.90D-02 ExpMax= 1.13D+05 ExpMxC= 1.70D+04 IAcc=3 IRadAn=         5 AccDes= 0.00D+00
 Harris functional with IExCor=  402 and IRadAn=       5 diagonalized for initial guess.
 HarFok:  IExCor=  402 AccDes= 0.00D+00 IRadAn=         5 IDoV= 1 UseB2=F ITyADJ=14
 ICtDFT=  3500011 ScaDFX=  1.000000  1.000000  1.000000  1.000000
 Defaulting to unpruned grid for atomic number  78.
 Defaulting to unpruned grid for atomic number  78.
 Defaulting to unpruned grid for atomic number  78.
 Defaulting to unpruned grid for atomic number  78.
 Defaulting to unpruned grid for atomic number  78.
 Defaulting to unpruned grid for atomic number  78.
 Defaulting to unpruned grid for atomic number  78.
 Defaulting to unpruned grid for atomic number  78.
 FoFCou: FMM=F IPFlag=           0 FMFlag=      100000 FMFlg1=           0
         NFxFlg=           0 DoJE=T BraDBF=F KetDBF=T FulRan=T
         wScrn=  0.000000 ICntrl=     500 IOpCl=  0 I1Cent=   200000004 NGrid=           0
         NMat0=    1 NMatS0=      1 NMatT0=    0 NMatD0=    1 NMtDS0=    0 NMtDT0=    0
 Petite list used in FoFCou.
 Keep R1 ints in memory in canonical form, NReq=623657012.
 Requested convergence on RMS density matrix=1.00D-08 within 128 cycles.
 Requested convergence on MAX density matrix=1.00D-06.
 Requested convergence on             energy=1.00D-06.
 No special actions if energy rises.
 Defaulting to unpruned grid for atomic number  78.
 Defaulting to unpruned grid for atomic number  78.
 Defaulting to unpruned grid for atomic number  78.
 Defaulting to unpruned grid for atomic number  78.
 Defaulting to unpruned grid for atomic number  78.
 Defaulting to unpruned grid for atomic number  78.
 Defaulting to unpruned grid for atomic number  78.
 Defaulting to unpruned grid for atomic number  78.
 Inv3:  Mode=1 IEnd=     9730803.
 Iteration    1 A*A^-1 deviation from unit magnitude is 7.55D-15 for    303.
 Iteration    1 A*A^-1 deviation from orthogonality  is 4.73D-15 for   1469    529.
 Iteration    1 A^-1*A deviation from unit magnitude is 6.88D-15 for    123.
 Iteration    1 A^-1*A deviation from orthogonality  is 3.62D-14 for    589    567.
 EnCoef did   100 forward-backward iterations
 EnCoef did   100 forward-backward iterations
 EnCoef did   100 forward-backward iterations
 EnCoef did   100 forward-backward iterations
 EnCoef did     6 forward-backward iterations
 EnCoef did     2 forward-backward iterations
 Error on total polarization charges =  0.00844
 SCF Done:  E(RB3LYP) =  -3717.74270055     A.U. after   28 cycles
            NFock= 28  Conv=0.91D-08     -V/T= 2.0253

 **********************************************************************

            Population analysis using the SCF density.

 **********************************************************************

 Orbital symmetries:
       Occupied  (A) (A) (A) (A) (A) (A) (A) (A) (A) (A) (A) (A)
                 (A) (A) (A) (A) (A) (A) (A) (A) (A) (A) (A) (A)
                 (A) (A) (A) (A) (A) (A) (A) (A) (A) (A) (A) (A)
                 (A) (A) (A) (A) (A) (A) (A) (A) (A) (A) (A) (A)
                 (A) (A) (A) (A) (A) (A) (A) (A) (A) (A) (A) (A)
                 (A) (A) (A) (A) (A) (A) (A) (A) (A) (A) (A) (A)
                 (A) (A) (A) (A) (A) (A) (A) (A) (A) (A) (A) (A)
                 (A)
       Virtual   (A) (A) (A) (A) (A) (A) (A) (A) (A) (A) (A) (A)
                 (A) (A) (A) (A) (A) (A) (A) (A) (A) (A) (A) (A)
                 (A) (A) (A) (A) (A) (A) (A) (A) (A) (A) (A) (A)
                 (A) (A) (A) (A) (A) (A) (A) (A) (A) (A) (A) (A)
                 (A) (A) (A) (A) (A) (A) (A) (A) (A) (A) (A) (A)
                 (A) (A) (A) (A) (A) (A) (A) (A) (A) (A) (A) (A)
                 (A) (A) (A) (A) (A) (A) (A) (A) (A) (A) (A) (A)
                 (A) (A) (A) (A) (A) (A) (A) (A) (A) (A) (A) (A)
                 (A) (A) (A) (A) (A) (A) (A) (A) (A) (A) (A) (A)
                 (A) (A) (A) (A) (A) (A) (A) (A) (A) (A) (A) (A)
                 (A) (A) (A) (A) (A) (A) (A) (A) (A) (A) (A) (A)
                 (A) (A) (A) (A) (A) (A) (A) (A) (A) (A) (A) (A)
                 (A) (A) (A) (A) (A) (A) (A) (A) (A) (A) (A) (A)
                 (A) (A) (A) (A) (A) (A) (A) (A) (A) (A) (A) (A)
                 (A) (A) (A) (A) (A) (A) (A) (A) (A) (A) (A)
 The electronic state is 1-A.
 Alpha  occ. eigenvalues -- -482.75780 -62.43934 -56.27135 -56.26833 -56.26821
 Alpha  occ. eigenvalues --  -19.16322 -19.16044 -19.15998 -19.15941 -19.15765
 Alpha  occ. eigenvalues --  -19.15711 -19.15157 -19.15035 -19.14814 -19.14448
 Alpha  occ. eigenvalues --  -14.51038 -14.50919 -14.50323 -14.49882 -14.49724
 Alpha  occ. eigenvalues --   -8.65707  -6.48932  -6.47841  -6.47798  -4.05841
 Alpha  occ. eigenvalues --   -2.60380  -2.60082  -2.60049  -2.59190  -2.59189
 Alpha  occ. eigenvalues --   -2.27629  -2.27337  -2.26922  -1.11752  -1.10700
 Alpha  occ. eigenvalues --   -1.09860  -1.09450  -1.09418  -0.95317  -0.94693
 Alpha  occ. eigenvalues --   -0.94345  -0.93328  -0.93045  -0.74166  -0.68954
 Alpha  occ. eigenvalues --   -0.68143  -0.66380  -0.64854  -0.63786  -0.53438
 Alpha  occ. eigenvalues --   -0.52125  -0.51519  -0.50327  -0.49424  -0.49043
 Alpha  occ. eigenvalues --   -0.48504  -0.48077  -0.47155  -0.46786  -0.46051
 Alpha  occ. eigenvalues --   -0.45809  -0.45531  -0.44102  -0.41924  -0.37875
 Alpha  occ. eigenvalues --   -0.37357  -0.36606  -0.36138  -0.31814  -0.31094
 Alpha  occ. eigenvalues --   -0.29923  -0.29485  -0.28786  -0.28537  -0.28006
 Alpha  occ. eigenvalues --   -0.27653  -0.27092  -0.26742  -0.26421  -0.25867
 Alpha  occ. eigenvalues --   -0.25446  -0.25318  -0.24706  -0.24557  -0.22137
 Alpha virt. eigenvalues --   -0.15876  -0.14792  -0.13514  -0.10770  -0.10027
 Alpha virt. eigenvalues --   -0.03371   0.00370   0.05585   0.06585   0.06925
 Alpha virt. eigenvalues --    0.15973   0.17336   0.17616   0.18176   0.18838
 Alpha virt. eigenvalues --    0.19082   0.19380   0.19668   0.20205   0.20638
 Alpha virt. eigenvalues --    0.20794   0.30773   0.31483   0.34157   0.39340
 Alpha virt. eigenvalues --    0.44980   0.46494   0.48376   0.49110   0.50666
 Alpha virt. eigenvalues --    0.57752   0.59410   0.60691   0.62392   0.64272
 Alpha virt. eigenvalues --    0.68625   0.70174   0.71499   0.71924   0.73205
 Alpha virt. eigenvalues --    0.76421   0.78851   0.79623   0.81398   0.81686
 Alpha virt. eigenvalues --    0.82862   0.84817   0.86090   0.86818   0.87291
 Alpha virt. eigenvalues --    0.87762   0.89964   0.90295   0.92148   0.93320
 Alpha virt. eigenvalues --    0.93529   0.94216   0.96019   0.97847   0.98311
 Alpha virt. eigenvalues --    0.99059   1.00109   1.01177   1.02384   1.02636
 Alpha virt. eigenvalues --    1.03736   1.04934   1.05386   1.06370   1.08622
 Alpha virt. eigenvalues --    1.10345   1.11991   1.14066   1.15764   1.16476
 Alpha virt. eigenvalues --    1.17538   1.18341   1.19402   1.20497   1.21604
 Alpha virt. eigenvalues --    1.23114   1.24308   1.25617   1.26591   1.27781
 Alpha virt. eigenvalues --    1.30339   1.31930   1.33198   1.35767   1.36375
 Alpha virt. eigenvalues --    1.41910   1.44858   1.46902   1.50796   1.54835
 Alpha virt. eigenvalues --    1.55325   1.60745   1.64135   1.85391   1.86715
 Alpha virt. eigenvalues --    1.87712   1.88392   1.92503   1.94880   1.97822
 Alpha virt. eigenvalues --    1.99033   2.02099   2.03526   2.08434   2.12811
 Alpha virt. eigenvalues --    2.19183   2.20389   2.26814   2.28743   2.29518
 Alpha virt. eigenvalues --    2.30916   2.32551   2.32858   2.34044   2.34740
 Alpha virt. eigenvalues --    2.35910   2.36429   2.39059   2.63181   2.63596
 Alpha virt. eigenvalues --    2.63768   2.64547   2.65038   2.65597   2.65898
 Alpha virt. eigenvalues --    2.66196   2.66270   2.66488   2.67313   2.67698
 Alpha virt. eigenvalues --    2.67861   2.68747   2.69109   2.70170   2.71161
 Alpha virt. eigenvalues --    2.73645   2.74282   2.75075   2.76124   2.76411
 Alpha virt. eigenvalues --    2.77698   2.78626   2.79133   2.95741   2.97120
 Alpha virt. eigenvalues --    2.98378   2.99584   2.99937   3.00762   3.00940
 Alpha virt. eigenvalues --    3.01079   3.01585   3.02080   3.20784   3.22127
 Alpha virt. eigenvalues --    3.23559   3.23915   3.24465   3.45548   3.48082
 Alpha virt. eigenvalues --    3.49322   3.50212   3.51875   3.52499   3.54265
 Alpha virt. eigenvalues --    3.63293   3.63670   3.67899   3.70457   3.72291
 Alpha virt. eigenvalues --    3.73551   3.74461   3.81473   9.43899
          Condensed to atoms (all electrons):
               1          2          3          4          5          6
     1  Pt  17.468947   0.048025  -0.005958  -0.003516  -0.033000   0.049209
     2  N    0.048025   6.613811   0.178808   0.179653  -0.026922  -0.005217
     3  O   -0.005958   0.178808   8.173025  -0.092392  -0.014220   0.000116
     4  O   -0.003516   0.179653  -0.092392   8.188920  -0.000903   0.000118
     5  N   -0.033000  -0.026922  -0.014220  -0.000903   6.777521  -0.018851
     6  N    0.049209  -0.005217   0.000116   0.000118  -0.018851   6.624082
     7  O   -0.010303   0.000125   0.000000  -0.000004  -0.000352   0.183248
     8  O    0.007715   0.000114  -0.000003   0.000000  -0.016684   0.163067
     9  O    0.003291  -0.004311   0.001682  -0.000512   0.175165   0.000566
    10  O   -0.005552  -0.003536  -0.003458   0.000199   0.181933   0.000402
    11  N    0.028631  -0.005090  -0.001799   0.000127  -0.012503  -0.002473
    12  O   -0.011411  -0.006198   0.000034   0.000101   0.000183  -0.000010
    13  O    0.006462   0.000062   0.000076   0.000001  -0.000506  -0.021053
    14  Br   0.244431  -0.010517   0.000408   0.000298  -0.004214  -0.012682
    15  N    0.027230   0.001319   0.000107  -0.017046  -0.020516  -0.007542
    16  O   -0.029498  -0.000095  -0.000001  -0.000076   0.000247  -0.006820
    17  O    0.011745   0.000156   0.000008  -0.000509  -0.017628  -0.004729
               7          8          9         10         11         12
     1  Pt  -0.010303   0.007715   0.003291  -0.005552   0.028631  -0.011411
     2  N    0.000125   0.000114  -0.004311  -0.003536  -0.005090  -0.006198
     3  O    0.000000  -0.000003   0.001682  -0.003458  -0.001799   0.000034
     4  O   -0.000004   0.000000  -0.000512   0.000199   0.000127   0.000101
     5  N   -0.000352  -0.016684   0.175165   0.181933  -0.012503   0.000183
     6  N    0.183248   0.163067   0.000566   0.000402  -0.002473  -0.000010
     7  O    8.171211  -0.088766   0.000026  -0.000002   0.000180   0.000001
     8  O   -0.088766   8.187368   0.000075  -0.000216  -0.001300   0.000010
     9  O    0.000026   0.000075   8.180968  -0.090306   0.000157   0.000003
    10  O   -0.000002  -0.000216  -0.090306   8.175003  -0.013614   0.000163
    11  N    0.000180  -0.001300   0.000157  -0.013614   6.610850   0.191705
    12  O    0.000001   0.000010   0.000003   0.000163   0.191705   8.192199
    13  O    0.000274  -0.000242   0.000001  -0.000004   0.177815  -0.092713
    14  Br   0.001497   0.000369   0.000135   0.000113  -0.018926  -0.004278
    15  N   -0.028304  -0.000024  -0.011042   0.000257  -0.005529   0.000118
    16  O   -0.010127   0.000046   0.000055   0.000000   0.000116   0.000000
    17  O    0.003926   0.000330  -0.028832   0.000119   0.000151   0.000000
              13         14         15         16         17
     1  Pt   0.006462   0.244431   0.027230  -0.029498   0.011745
     2  N    0.000062  -0.010517   0.001319  -0.000095   0.000156
     3  O    0.000076   0.000408   0.000107  -0.000001   0.000008
     4  O    0.000001   0.000298  -0.017046  -0.000076  -0.000509
     5  N   -0.000506  -0.004214  -0.020516   0.000247  -0.017628
     6  N   -0.021053  -0.012682  -0.007542  -0.006820  -0.004729
     7  O    0.000274   0.001497  -0.028304  -0.010127   0.003926
     8  O   -0.000242   0.000369  -0.000024   0.000046   0.000330
     9  O    0.000001   0.000135  -0.011042   0.000055  -0.028832
    10  O   -0.000004   0.000113   0.000257   0.000000   0.000119
    11  N    0.177815  -0.018926  -0.005529   0.000116   0.000151
    12  O   -0.092713  -0.004278   0.000118   0.000000   0.000000
    13  O    8.215859   0.000933   0.000133  -0.000001   0.000000
    14  Br   0.000933  34.848309  -0.015064  -0.016841   0.000316
    15  N    0.000133  -0.015064   6.624005   0.201461   0.178858
    16  O   -0.000001  -0.016841   0.201461   8.166455  -0.095798
    17  O    0.000000   0.000316   0.178858  -0.095798   8.193734
 Mulliken charges:
               1
     1  Pt   0.203555
     2  N    0.039813
     3  O   -0.236436
     4  O   -0.254461
     5  N    0.031249
     6  N    0.058567
     7  O   -0.222630
     8  O   -0.251858
     9  O   -0.227119
    10  O   -0.241500
    11  N    0.051501
    12  O   -0.269909
    13  O   -0.287096
    14  Br  -0.014288
    15  N    0.071583
    16  O   -0.209125
    17  O   -0.241846
 Sum of Mulliken charges =  -2.00000
 Mulliken charges with hydrogens summed into heavy atoms:
               1
     1  Pt   0.203555
     2  N    0.039813
     3  O   -0.236436
     4  O   -0.254461
     5  N    0.031249
     6  N    0.058567
     7  O   -0.222630
     8  O   -0.251858
     9  O   -0.227119
    10  O   -0.241500
    11  N    0.051501
    12  O   -0.269909
    13  O   -0.287096
    14  Br  -0.014288
    15  N    0.071583
    16  O   -0.209125
    17  O   -0.241846
 Electronic spatial extent (au):  <R**2>=           3749.0324
 Charge=             -2.0000 electrons
 Dipole moment (field-independent basis, Debye):
    X=              3.7444    Y=             -0.2487    Z=             -1.1001  Tot=              3.9106
 Quadrupole moment (field-independent basis, Debye-Ang):
   XX=           -157.7478   YY=           -165.4828   ZZ=           -154.8404
   XY=             -0.5120   XZ=             -4.5733   YZ=              1.6315
 Traceless Quadrupole moment (field-independent basis, Debye-Ang):
   XX=              1.6092   YY=             -6.1258   ZZ=              4.5166
   XY=             -0.5120   XZ=             -4.5733   YZ=              1.6315
 Octapole moment (field-independent basis, Debye-Ang**2):
  XXX=             75.3967  YYY=            -17.3385  ZZZ=            -22.7968  XYY=             12.1944
  XXY=              6.5559  XXZ=              6.6971  XZZ=             24.0042  YZZ=              1.2175
  YYZ=            -10.9624  XYZ=              8.4958
 Hexadecapole moment (field-independent basis, Debye-Ang**3):
 XXXX=          -1708.6773 YYYY=          -1680.3902 ZZZZ=          -1364.6060 XXXY=            -22.5120
 XXXZ=            -42.8072 YYYX=              2.6864 YYYZ=              5.6876 ZZZX=            -39.1758
 ZZZY=             -2.1844 XXYY=           -571.8418 XXZZ=           -494.3359 YYZZ=           -490.3135
 XXYZ=             11.2163 YYXZ=            -26.0905 ZZXY=             -0.5896
 N-N= 2.239806642633D+03 E-N=-1.334124477559D+04  KE= 3.626024187444D+03
   1 Symmetry operations used in ECPInt.
 ECPInt:  NShTT=    6105 NPrTT=   25897 LenC2=    5766 LenP2D=   17254.
 LDataN:  DoStor=T MaxTD1= 7 Len=  274
 D1PCM: PCM CHGder 1st derivatives, ID1Alg=3 FixD1E=F DoIter=F DoCFld=F I1PDM=0.
 Calling FoFJK, ICntrl=      2127 FMM=F ISym2X=0 I1Cent= 0 IOpClX= 0 NMat=1 NMatS=1 NMatT=0.
 Defaulting to unpruned grid for atomic number  78.
 Defaulting to unpruned grid for atomic number  78.
 Defaulting to unpruned grid for atomic number  78.
 Defaulting to unpruned grid for atomic number  78.
 Defaulting to unpruned grid for atomic number  78.
 Defaulting to unpruned grid for atomic number  78.
 Defaulting to unpruned grid for atomic number  78.
 Defaulting to unpruned grid for atomic number  78.
 ***** Axes restored to original set *****
 -------------------------------------------------------------------
 Center     Atomic                   Forces (Hartrees/Bohr)
 Number     Number              X              Y              Z
 -------------------------------------------------------------------
      1       78           0.009877083   -0.042976243   -0.027433812
      2        7           0.103487989    0.168326263    0.067903001
      3        8          -0.016915307   -0.101267351    0.030778206
      4        8          -0.019002360   -0.049110520   -0.084357598
      5        7           0.179579455    0.112766827   -0.002827103
      6        7          -0.103672418    0.124136536    0.134219584
      7        8           0.004472276   -0.004402494   -0.107385444
      8        8           0.022290972   -0.098615803   -0.011737558
      9        8          -0.066042097   -0.009208427   -0.084602408
     10        8          -0.078018496   -0.017039166    0.065711387
     11        7          -0.060462367   -0.164579599   -0.105497215
     12        8          -0.035236309    0.093438577    0.025131928
     13        8           0.083279045    0.048016769    0.018582525
     14       35           0.005287631   -0.038444495   -0.006958792
     15        7          -0.177128008    0.002519827    0.113641571
     16        8           0.091149671    0.063281707   -0.012691528
     17        8           0.057053239   -0.086842409   -0.012476743
 -------------------------------------------------------------------
 Cartesian Forces:  Max     0.179579455 RMS     0.080737124

 GradGradGradGradGradGradGradGradGradGradGradGradGradGradGradGradGradGrad
 Berny optimization.
 FormGI is forming the generalized inverse of G from B-inverse, IUseBI=4.
 Internal  Forces:  Max     0.103928217 RMS     0.041030134
 Search for a local minimum.
 Step number   1 out of a maximum of  102
 All quantities printed in internal units (Hartrees-Bohrs-Radians)
 Mixed Optimization -- RFO/linear search
 Second derivative matrix not updated -- first step.
 ITU=  0
     Eigenvalues ---    0.00230   0.00230   0.00230   0.00230   0.00230
     Eigenvalues ---    0.03385   0.03400   0.03411   0.03424   0.04734
     Eigenvalues ---    0.06344   0.06360   0.06422   0.06422   0.08301
     Eigenvalues ---    0.08397   0.12615   0.12615   0.16743   0.19509
     Eigenvalues ---    0.20378   0.20378   0.20378   0.20378   0.20378
     Eigenvalues ---    0.25000   0.25000   0.25000   0.25000   0.25000
     Eigenvalues ---    0.25000   0.25000   0.25000   0.25000   0.25000
     Eigenvalues ---    0.52948   0.52948   0.52948   0.52948   0.52948
     Eigenvalues ---    0.52948   0.52948   0.52948   0.52948   0.52948
 RFO step:  Lambda=-2.78390304D-01 EMin= 2.30000000D-03
 Linear search not attempted -- first point.
 Maximum step size (   0.300) exceeded in Quadratic search.
    -- Step size scaled by   0.488
 Iteration  1 RMS(Cart)=  0.06780889 RMS(Int)=  0.00178053
 Iteration  2 RMS(Cart)=  0.00229945 RMS(Int)=  0.00065185
 Iteration  3 RMS(Cart)=  0.00000559 RMS(Int)=  0.00065184
 Iteration  4 RMS(Cart)=  0.00000001 RMS(Int)=  0.00065184
 Variable       Old X    -DE/DX   Delta X   Delta X   Delta X     New X
                                 (Linear)    (Quad)   (Total)
    R1        3.76056   0.06758   0.00000   0.06836   0.06836   3.82892
    R2        3.76056   0.08650   0.00000   0.08751   0.08751   3.84806
    R3        3.76056   0.07690   0.00000   0.07779   0.07779   3.83835
    R4        3.76056   0.06176   0.00000   0.06248   0.06248   3.82303
    R5        4.59203   0.03845   0.00000   0.03961   0.03961   4.63164
    R6        3.76056   0.08850   0.00000   0.08952   0.08952   3.85008
    R7        2.57003  -0.09901   0.00000  -0.05978  -0.05978   2.51025
    R8        2.57003  -0.09130   0.00000  -0.05513  -0.05513   2.51490
    R9        2.57003  -0.10393   0.00000  -0.06275  -0.06275   2.50728
   R10        2.57003  -0.09404   0.00000  -0.05678  -0.05678   2.51325
   R11        2.57003  -0.09690   0.00000  -0.05851  -0.05851   2.51152
   R12        2.57003  -0.09568   0.00000  -0.05777  -0.05777   2.51226
   R13        2.57003  -0.09643   0.00000  -0.05822  -0.05822   2.51180
   R14        2.57003  -0.09208   0.00000  -0.05560  -0.05560   2.51443
   R15        2.57003  -0.10143   0.00000  -0.06124  -0.06124   2.50879
   R16        2.57003  -0.10143   0.00000  -0.06124  -0.06124   2.50879
    A1        1.57080  -0.00419   0.00000  -0.00633  -0.00629   1.56451
    A2        1.57080   0.00962   0.00000   0.01097   0.01094   1.58174
    A3        1.57080  -0.00398   0.00000  -0.00530  -0.00525   1.56555
    A4        1.57080  -0.00302   0.00000  -0.00252  -0.00241   1.56839
    A5        1.57080  -0.00189   0.00000  -0.00178  -0.00186   1.56894
    A6        1.57080  -0.01132   0.00000  -0.01401  -0.01399   1.55681
    A7        1.57080   0.02741   0.00000   0.03672   0.03671   1.60751
    A8        1.57080  -0.00909   0.00000  -0.01073  -0.01070   1.56009
    A9        1.57080   0.01006   0.00000   0.01341   0.01341   1.58420
   A10        1.57080   0.00248   0.00000   0.00227   0.00235   1.57315
   A11        1.57080  -0.00721   0.00000  -0.01238  -0.01229   1.55851
   A12        1.57080  -0.00887   0.00000  -0.01034  -0.01033   1.56046
   A13        1.91063   0.04027   0.00000   0.04281   0.04179   1.95243
   A14        1.91063   0.02763   0.00000   0.03114   0.03012   1.94075
   A15        1.91063  -0.00715   0.00000   0.00467   0.00285   1.91349
   A16        1.91063   0.06116   0.00000   0.06213   0.06068   1.97132
   A17        1.91063   0.03079   0.00000   0.03409   0.03261   1.94324
   A18        1.91063  -0.01635   0.00000  -0.00375  -0.00630   1.90433
   A19        1.91063   0.06776   0.00000   0.06819   0.06694   1.97758
   A20        1.91063   0.01809   0.00000   0.02234   0.02104   1.93167
   A21        1.91063  -0.01615   0.00000  -0.00363  -0.00588   1.90476
   A22        1.91063   0.01829   0.00000   0.02175   0.02115   1.93178
   A23        1.91063   0.03213   0.00000   0.03453   0.03394   1.94457
   A24        1.91063  -0.00166   0.00000   0.00821   0.00712   1.91775
   A25        1.91063   0.04607   0.00000   0.04740   0.04607   1.95670
   A26        1.91063   0.04660   0.00000   0.04789   0.04657   1.95720
   A27        1.91063  -0.02311   0.00000  -0.01159  -0.01393   1.89671
   A28        3.14159  -0.00607   0.00000  -0.00812  -0.00815   3.13344
   A29        3.14159  -0.00817   0.00000  -0.01163  -0.01154   3.13005
   A30        3.14159   0.00661   0.00000   0.00846   0.00854   3.15013
   A31        3.14159   0.00053   0.00000   0.00025   0.00036   3.14195
   A32        3.14159   0.01854   0.00000   0.02639   0.02641   3.16800
   A33        3.14159   0.01609   0.00000   0.02271   0.02267   3.16426
    D1       -0.65581  -0.00188   0.00000  -0.00583  -0.00613  -0.66194
    D2        1.43858   0.03094   0.00000   0.04517   0.04544   1.48402
    D3        0.91499  -0.01320   0.00000  -0.01984  -0.02019   0.89479
    D4        3.00938   0.01962   0.00000   0.03116   0.03138   3.04076
    D5        2.48578  -0.02042   0.00000  -0.03222  -0.03254   2.45324
    D6       -1.70301   0.01240   0.00000   0.01878   0.01903  -1.68398
    D7       -2.22661  -0.02929   0.00000  -0.04255  -0.04286  -2.26947
    D8       -0.13221   0.00353   0.00000   0.00845   0.00871  -0.12350
    D9       -2.52842  -0.03155   0.00000  -0.04957  -0.04981  -2.57822
   D10       -0.43402  -0.00013   0.00000  -0.00032  -0.00021  -0.43423
   D11       -0.43402  -0.00051   0.00000  -0.00090  -0.00086  -0.43488
   D12        1.66037   0.03090   0.00000   0.04836   0.04874   1.70911
   D13       -0.98912  -0.00529   0.00000  -0.00711  -0.00753  -0.99665
   D14        1.10528   0.03100   0.00000   0.04722   0.04778   1.15305
   D15        2.15247  -0.00582   0.00000  -0.00736  -0.00788   2.14459
   D16       -2.03632   0.03046   0.00000   0.04697   0.04742  -1.98889
   D17       -2.55991  -0.01491   0.00000  -0.01809  -0.01856  -2.57848
   D18       -0.46552   0.02137   0.00000   0.03624   0.03674  -0.42878
   D19        0.58168  -0.00830   0.00000  -0.00963  -0.01017   0.57151
   D20        2.67607   0.02798   0.00000   0.04470   0.04514   2.72121
   D21       -1.87261  -0.03145   0.00000  -0.04604  -0.04641  -1.91901
   D22        0.22179   0.00135   0.00000   0.00496   0.00528   0.22707
   D23        2.83978  -0.02013   0.00000  -0.03202  -0.03244   2.80735
   D24       -1.34901   0.01267   0.00000   0.01897   0.01925  -1.32976
   D25        1.26899  -0.01292   0.00000  -0.01965  -0.02000   1.24899
   D26       -2.91980   0.01988   0.00000   0.03135   0.03168  -2.88812
   D27       -0.30181  -0.00404   0.00000  -0.00931  -0.00970  -0.31151
   D28        1.79259   0.02876   0.00000   0.04169   0.04199   1.83457
   D29        0.84811  -0.01649   0.00000  -0.02615  -0.02646   0.82165
   D30        2.94251   0.01235   0.00000   0.01837   0.01858   2.96109
   D31        2.41891  -0.02068   0.00000  -0.03248  -0.03291   2.38600
   D32       -1.76988   0.00817   0.00000   0.01204   0.01213  -1.75775
   D33       -2.29348  -0.02256   0.00000  -0.03427  -0.03462  -2.32810
   D34       -0.19908   0.00628   0.00000   0.01026   0.01042  -0.18866
   D35       -0.72268  -0.01251   0.00000  -0.02085  -0.02108  -0.74376
   D36        1.37171   0.01634   0.00000   0.02367   0.02396   1.39568
   D37       -1.30722   0.00602   0.00000   0.00983   0.01019  -1.29703
   D38        2.88157  -0.02071   0.00000  -0.03217  -0.03206   2.84951
   D39        0.78718   0.02954   0.00000   0.04694   0.04711   0.83429
   D40       -1.30722   0.00282   0.00000   0.00494   0.00487  -1.30235
   D41       -2.15533   0.01915   0.00000   0.03123   0.03151  -2.12383
   D42        2.03346  -0.00929   0.00000  -0.01293  -0.01342   2.02003
   D43        2.55705   0.02334   0.00000   0.03757   0.03789   2.59494
   D44        0.46266  -0.00510   0.00000  -0.00659  -0.00704   0.45562
   D45        0.98626   0.02523   0.00000   0.03935   0.03966   1.02592
   D46       -1.10814  -0.00322   0.00000  -0.00481  -0.00526  -1.11340
   D47       -0.58454   0.01517   0.00000   0.02594   0.02628  -0.55826
   D48       -2.67893  -0.01327   0.00000  -0.01822  -0.01865  -2.69758
         Item               Value     Threshold  Converged?
 Maximum Force            0.103928     0.000450     NO 
 RMS     Force            0.041030     0.000300     NO 
 Maximum Displacement     0.239142     0.001800     NO 
 RMS     Displacement     0.066463     0.001200     NO 
 Predicted change in Energy=-1.206908D-01
 GradGradGradGradGradGradGradGradGradGradGradGradGradGradGradGradGradGrad

                          Input orientation:                          
 ---------------------------------------------------------------------
 Center     Atomic      Atomic             Coordinates (Angstroms)
 Number     Number       Type             X           Y           Z
 ---------------------------------------------------------------------
      1         78           0       -0.319261    0.337515    0.013181
      2          7           0        1.706888    0.334831    0.023031
      3          8           0        2.206665    1.289489   -0.753763
      4          8           0        2.182258    0.469233    1.258774
      5          7           0       -0.303535    2.373258   -0.032096
      6          7           0       -2.350315    0.356772    0.003662
      7          8           0       -2.885250   -0.029061    1.157491
      8          8           0       -2.806834    1.566503   -0.305407
      9          8           0        0.359056    2.908227    0.985334
     10          8           0        0.208219    2.828046   -1.172295
     11          7           0       -0.331589    0.320926   -2.009775
     12          8           0        0.511148   -0.594686   -2.476888
     13          8           0       -1.553415    0.096291   -2.486348
     14         35           0       -0.309591   -2.113403    0.003098
     15          7           0       -0.324301    0.308064    2.050336
     16          8           0       -0.972906   -0.744831    2.533270
     17          8           0       -0.858185    1.409100    2.565302
 ---------------------------------------------------------------------
                    Distance matrix (angstroms):
                    1          2          3          4          5
     1  Pt   0.000000
     2  N    2.026175   0.000000
     3  O    2.806201   1.328367   0.000000
     4  O    2.797579   1.330828   2.173413   0.000000
     5  N    2.036307   2.863568   2.827802   3.386860   0.000000
     6  N    2.031167   4.057308   4.712719   4.704484   2.873465
     7  O    2.833394   4.744170   5.596344   5.092956   3.721762
     8  O    2.792835   4.690264   5.041124   5.342444   2.644251
     9  O    2.830858   3.060236   3.009723   3.057372   1.326794
    10  O    2.808261   3.144985   2.556582   3.920577   1.329953
    11  N    2.023062   2.878868   2.993061   4.126116   2.850276
    12  O    2.785503   2.922908   3.064972   4.228440   3.930574
    13  O    2.798030   4.121099   4.308569   5.302855   3.573532
    14  Br   2.450959   3.171819   4.299309   3.802110   4.486804
    15  N    2.037374   2.869915   3.902814   2.633512   2.932914
    16  O    2.819499   3.827305   5.005269   3.612942   4.092877
    17  O    2.819938   3.767863   4.519270   3.440153   2.825546
                    6          7          8          9         10
     6  N    0.000000
     7  O    1.329039   0.000000
     8  O    1.329429   2.166112   0.000000
     9  O    3.848934   4.379820   3.672751   0.000000
    10  O    3.746486   4.812536   3.381350   2.164381   0.000000
    11  N    2.851398   4.083534   3.253179   4.017686   2.697854
    12  O    3.904660   5.006412   4.516091   4.927527   3.675435
    13  O    2.627365   3.881631   2.913604   4.859744   3.506077
    14  Br   3.204110   3.508722   4.457927   5.160295   5.105643
    15  N    2.880274   2.733000   3.646391   2.891722   4.125437
    16  O    3.083780   2.462145   4.094343   4.185100   5.281260
    17  O    3.145766   2.856437   3.473180   2.495066   4.137662
                   11         12         13         14         15
    11  N    0.000000
    12  O    1.329189   0.000000
    13  O    1.330579   2.177144   0.000000
    14  Br   3.158813   3.021662   3.553475   0.000000
    15  N    4.060139   4.691342   4.705005   3.170947   0.000000
    16  O    4.710243   5.227489   5.122601   2.952075   1.327592
    17  O    4.732098   5.595883   5.265546   4.390202   1.327592
                   16         17
    16  O    0.000000
    17  O    2.157222   0.000000
 Stoichiometry    BrN5O10Pt(2-)
 Framework group  C1[X(BrN5O10Pt)]
 Deg. of freedom    45
 Full point group                 C1      NOp   1
 Largest Abelian subgroup         C1      NOp   1
 Largest concise Abelian subgroup C1      NOp   1
                         Standard orientation:                         
 ---------------------------------------------------------------------
 Center     Atomic      Atomic             Coordinates (Angstroms)
 Number     Number       Type             X           Y           Z
 ---------------------------------------------------------------------
      1         78           0       -0.108354   -0.030473    0.034293
      2          7           0       -0.574163   -1.101687   -1.621276
      3          8           0       -1.578604   -1.942385   -1.400182
      4          8           0       -0.875977   -0.302954   -2.642078
      5          7           0       -2.087858    0.093033    0.495654
      6          7           0        0.342468    1.045015    1.697339
      7          8           0        0.783560    2.269480    1.428145
      8          8           0       -0.712228    1.128929    2.502298
      9          8           0       -2.811287    0.641631   -0.471856
     10          8           0       -2.591278   -1.101846    0.791643
     11          7           0        0.011180   -1.729001    1.126765
     12          8           0        0.729473   -2.647772    0.489066
     13          8           0        0.535322   -1.498285    2.327801
     14         35           0        2.271462   -0.248806   -0.509770
     15          7           0       -0.179845    1.685418   -1.061837
     16          8           0        0.969033    2.349703   -1.025693
     17          8           0       -1.152020    2.495456   -0.660322
 ---------------------------------------------------------------------
 Rotational constants (GHZ):      0.4269553      0.3692667      0.3424095
 Basis read from rwf:  (5D, 7F)
 Pseudo-potential data read from rwf file.
 There are   284 symmetry adapted cartesian basis functions of A   symmetry.
 There are   264 symmetry adapted basis functions of A   symmetry.
   264 basis functions,   498 primitive gaussians,   284 cartesian basis functions
    85 alpha electrons       85 beta electrons
       nuclear repulsion energy      2209.4170355631 Hartrees.
 NAtoms=   17 NActive=   17 NUniq=   17 SFac= 1.00D+00 NAtFMM=   60 NAOKFM=F Big=F
 Integral buffers will be    131072 words long.
 Raffenetti 2 integral format.
 Two-electron integral symmetry is turned on.
 ------------------------------------------------------------------------------
 Polarizable Continuum Model (PCM)
 =================================
 Model                : PCM (using non-symmetric T matrix).
 Atomic radii         : UFF (Universal Force Field).
 Polarization charges : Total charges.
 Charge compensation  : None.
 Solution method      : On-the-fly selection.
 Cavity type          : Scaled VdW (van der Waals Surface) (Alpha=1.100).
 Cavity algorithm     : GePol (No added spheres)
                        Default sphere list used, NSphG=   17.
                        Lebedev-Laikov grids with approx.  5.0 points / Ang**2.
                        Smoothing algorithm: Karplus/York (Gamma=1.0000).
                        Polarization charges: spherical gaussians, with
                                              point-specific exponents (IZeta= 3).
                        Self-potential: point-specific (ISelfS= 7).
                        Self-field    : sphere-specific E.n sum rule (ISelfD= 2).
 1st derivatives      : Analytical E(r).r(x)/FMM algorithm (CHGder, D1EAlg=3).
                        Cavity 1st derivative terms included.
 Solvent              : Water, Eps=  78.355300 Eps(inf)=   1.777849
 ------------------------------------------------------------------------------
 Spheres list:
 ISph  on   Nord     Re0    Alpha      Xe            Ye            Ze
    1  Pt      1    1.3770  1.100     -0.108354     -0.030473      0.034293
    2   N      2    1.8300  1.100     -0.574163     -1.101687     -1.621276
    3   O      3    1.7500  1.100     -1.578604     -1.942385     -1.400182
    4   O      4    1.7500  1.100     -0.875977     -0.302954     -2.642078
    5   N      5    1.8300  1.100     -2.087858      0.093033      0.495654
    6   N      6    1.8300  1.100      0.342468      1.045015      1.697339
    7   O      7    1.7500  1.100      0.783560      2.269480      1.428145
    8   O      8    1.7500  1.100     -0.712228      1.128929      2.502298
    9   O      9    1.7500  1.100     -2.811287      0.641631     -0.471856
   10   O     10    1.7500  1.100     -2.591278     -1.101846      0.791643
   11   N     11    1.8300  1.100      0.011180     -1.729001      1.126765
   12   O     12    1.7500  1.100      0.729473     -2.647772      0.489066
   13   O     13    1.7500  1.100      0.535322     -1.498285      2.327801
   14  Br     14    2.0945  1.100      2.271462     -0.248806     -0.509770
   15   N     15    1.8300  1.100     -0.179845      1.685418     -1.061837
   16   O     16    1.7500  1.100      0.969033      2.349703     -1.025693
   17   O     17    1.7500  1.100     -1.152020      2.495456     -0.660322
 ------------------------------------------------------------------------------
 One-electron integrals computed using PRISM.
   1 Symmetry operations used in ECPInt.
 ECPInt:  NShTT=    6105 NPrTT=   25897 LenC2=    5752 LenP2D=   17128.
 LDataN:  DoStor=T MaxTD1= 6 Len=  172
 NBasis=   264 RedAO= T EigKep=  2.29D-03  NBF=   264
 NBsUse=   264 1.00D-06 EigRej= -1.00D+00 NBFU=   264
 Defaulting to unpruned grid for atomic number  78.
 Initial guess from the checkpoint file:  "/home/scr/diego/Gau-4083.chk"
 B after Tr=     0.000000    0.000000    0.000000
         Rot=    0.999828   -0.004384    0.009602    0.015240 Ang=  -2.12 deg.
 ExpMin= 2.90D-02 ExpMax= 1.13D+05 ExpMxC= 1.70D+04 IAcc=3 IRadAn=         5 AccDes= 0.00D+00
 Harris functional with IExCor=  402 and IRadAn=       5 diagonalized for initial guess.
 HarFok:  IExCor=  402 AccDes= 0.00D+00 IRadAn=         5 IDoV= 1 UseB2=F ITyADJ=14
 ICtDFT=  3500011 ScaDFX=  1.000000  1.000000  1.000000  1.000000
 Defaulting to unpruned grid for atomic number  78.
 Defaulting to unpruned grid for atomic number  78.
 Defaulting to unpruned grid for atomic number  78.
 Defaulting to unpruned grid for atomic number  78.
 Defaulting to unpruned grid for atomic number  78.
 Defaulting to unpruned grid for atomic number  78.
 Defaulting to unpruned grid for atomic number  78.
 Defaulting to unpruned grid for atomic number  78.
 FoFCou: FMM=F IPFlag=           0 FMFlag=      100000 FMFlg1=           0
         NFxFlg=           0 DoJE=T BraDBF=F KetDBF=T FulRan=T
         wScrn=  0.000000 ICntrl=     500 IOpCl=  0 I1Cent=   200000004 NGrid=           0
         NMat0=    1 NMatS0=      1 NMatT0=    0 NMatD0=    1 NMtDS0=    0 NMtDT0=    0
 Petite list used in FoFCou.
 Keep R1 ints in memory in canonical form, NReq=623657012.
 Requested convergence on RMS density matrix=1.00D-08 within 128 cycles.
 Requested convergence on MAX density matrix=1.00D-06.
 Requested convergence on             energy=1.00D-06.
 No special actions if energy rises.
 Defaulting to unpruned grid for atomic number  78.
 Defaulting to unpruned grid for atomic number  78.
 Defaulting to unpruned grid for atomic number  78.
 Defaulting to unpruned grid for atomic number  78.
 Defaulting to unpruned grid for atomic number  78.
 Defaulting to unpruned grid for atomic number  78.
 Defaulting to unpruned grid for atomic number  78.
 Defaulting to unpruned grid for atomic number  78.
 Inv3:  Mode=1 IEnd=    10267500.
 Iteration    1 A*A^-1 deviation from unit magnitude is 7.44D-15 for    571.
 Iteration    1 A*A^-1 deviation from orthogonality  is 4.12D-15 for   1573   1312.
 Iteration    1 A^-1*A deviation from unit magnitude is 6.66D-15 for     13.
 Iteration    1 A^-1*A deviation from orthogonality  is 6.51D-15 for   1671   1596.
 Error on total polarization charges =  0.00797
 SCF Done:  E(RB3LYP) =  -3717.85991960     A.U. after   18 cycles
            NFock= 18  Conv=0.70D-08     -V/T= 2.0253
   1 Symmetry operations used in ECPInt.
 ECPInt:  NShTT=    6105 NPrTT=   25897 LenC2=    5752 LenP2D=   17128.
 LDataN:  DoStor=T MaxTD1= 7 Len=  274
 D1PCM: PCM CHGder 1st derivatives, ID1Alg=3 FixD1E=F DoIter=F DoCFld=F I1PDM=0.
 Calling FoFJK, ICntrl=      2127 FMM=F ISym2X=0 I1Cent= 0 IOpClX= 0 NMat=1 NMatS=1 NMatT=0.
 Defaulting to unpruned grid for atomic number  78.
 Defaulting to unpruned grid for atomic number  78.
 Defaulting to unpruned grid for atomic number  78.
 Defaulting to unpruned grid for atomic number  78.
 Defaulting to unpruned grid for atomic number  78.
 Defaulting to unpruned grid for atomic number  78.
 Defaulting to unpruned grid for atomic number  78.
 Defaulting to unpruned grid for atomic number  78.
 ***** Axes restored to original set *****
 -------------------------------------------------------------------
 Center     Atomic                   Forces (Hartrees/Bohr)
 Number     Number              X              Y              Z
 -------------------------------------------------------------------
      1       78           0.007313733   -0.030078919   -0.022411595
      2        7           0.096667649    0.156776757    0.062597830
      3        8          -0.026580027   -0.089211060    0.018372470
      4        8          -0.025276818   -0.048849434   -0.068275244
      5        7           0.165654038    0.104831459   -0.006989755
      6        7          -0.100218535    0.116150885    0.126191017
      7        8           0.026139217   -0.015016430   -0.089076217
      8        8           0.027028438   -0.081608068   -0.020844495
      9        8          -0.068718803   -0.028097495   -0.052862654
     10        8          -0.071337224   -0.025248370    0.049088694
     11        7          -0.056090283   -0.154304703   -0.093261433
     12        8          -0.022307584    0.085036943    0.027187002
     13        8           0.068387862    0.049522175    0.023339084
     14       35           0.003805068   -0.029261705   -0.005044649
     15        7          -0.170276546    0.000502760    0.106106247
     16        8           0.081806896    0.043505068   -0.024262277
     17        8           0.064002919   -0.054649860   -0.029854026
 -------------------------------------------------------------------
 Cartesian Forces:  Max     0.170276546 RMS     0.073715689

 GradGradGradGradGradGradGradGradGradGradGradGradGradGradGradGradGradGrad
 Berny optimization.
 Using GEDIIS/GDIIS optimizer.
 FormGI is forming the generalized inverse of G from B-inverse, IUseBI=4.
 Internal  Forces:  Max     0.086202359 RMS     0.031668556
 Search for a local minimum.
 Step number   2 out of a maximum of  102
 All quantities printed in internal units (Hartrees-Bohrs-Radians)
 Mixed Optimization -- RFO/linear search
 Update second derivatives using D2CorX and points    1    2
 DE= -1.17D-01 DEPred=-1.21D-01 R= 9.71D-01
 TightC=F SS=  1.41D+00  RLast= 3.59D-01 DXNew= 5.0454D-01 1.0776D+00
 Trust test= 9.71D-01 RLast= 3.59D-01 DXMaxT set to 5.05D-01
 ITU=  1  0
 Use linear search instead of GDIIS.
 Linear search step of   0.597 exceeds DXMaxT=   0.505 but not scaled.
 Quartic linear search produced a step of  2.00000.
 Iteration  1 RMS(Cart)=  0.12904162 RMS(Int)=  0.00739900
 Iteration  2 RMS(Cart)=  0.00817645 RMS(Int)=  0.00356219
 Iteration  3 RMS(Cart)=  0.00007582 RMS(Int)=  0.00356179
 Iteration  4 RMS(Cart)=  0.00000064 RMS(Int)=  0.00356179
 Variable       Old X    -DE/DX   Delta X   Delta X   Delta X     New X
                                 (Linear)    (Quad)   (Total)
    R1        3.82892   0.04484   0.13672   0.00000   0.13672   3.96564
    R2        3.84806   0.05189   0.17502   0.00000   0.17502   4.02308
    R3        3.83835   0.04716   0.15559   0.00000   0.15559   3.99394
    R4        3.82303   0.04290   0.12496   0.00000   0.12496   3.94799
    R5        4.63164   0.02930   0.07921   0.00000   0.07921   4.71085
    R6        3.85008   0.05223   0.17905   0.00000   0.17905   4.02912
    R7        2.51025  -0.08488  -0.11956   0.00000  -0.11956   2.39069
    R8        2.51490  -0.07735  -0.11025   0.00000  -0.11025   2.40465
    R9        2.50728  -0.08620  -0.12550   0.00000  -0.12550   2.38178
   R10        2.51325  -0.07814  -0.11356   0.00000  -0.11356   2.39969
   R11        2.51152  -0.08350  -0.11702   0.00000  -0.11702   2.39450
   R12        2.51226  -0.07868  -0.11554   0.00000  -0.11554   2.39672
   R13        2.51180  -0.08225  -0.11645   0.00000  -0.11645   2.39536
   R14        2.51443  -0.07952  -0.11119   0.00000  -0.11119   2.40324
   R15        2.50879  -0.08332  -0.12248   0.00000  -0.12248   2.38630
   R16        2.50879  -0.08261  -0.12248   0.00000  -0.12248   2.38630
    A1        1.56451  -0.00477  -0.01258   0.00000  -0.01226   1.55224
    A2        1.58174   0.00862   0.02189   0.00000   0.02155   1.60329
    A3        1.56555  -0.00042  -0.01050   0.00000  -0.01027   1.55528
    A4        1.56839  -0.00095  -0.00481   0.00000  -0.00413   1.56426
    A5        1.56894  -0.00258  -0.00372   0.00000  -0.00415   1.56479
    A6        1.55681  -0.00370  -0.02798   0.00000  -0.02784   1.52897
    A7        1.60751   0.01174   0.07342   0.00000   0.07332   1.68083
    A8        1.56009  -0.00168  -0.02140   0.00000  -0.02121   1.53888
    A9        1.58420   0.00795   0.02681   0.00000   0.02672   1.61092
   A10        1.57315  -0.00576   0.00470   0.00000   0.00528   1.57843
   A11        1.55851  -0.00518  -0.02458   0.00000  -0.02404   1.53446
   A12        1.56046  -0.00273  -0.02066   0.00000  -0.02062   1.53985
   A13        1.95243   0.01861   0.08359   0.00000   0.07727   2.02970
   A14        1.94075   0.01103   0.06024   0.00000   0.05381   1.99457
   A15        1.91349   0.00778   0.00571   0.00000  -0.00386   1.90963
   A16        1.97132   0.02286   0.12137   0.00000   0.11244   2.08376
   A17        1.94324   0.01030   0.06522   0.00000   0.05587   1.99912
   A18        1.90433   0.01069  -0.01261   0.00000  -0.02575   1.87858
   A19        1.97758   0.02412   0.13389   0.00000   0.12626   2.10384
   A20        1.93167   0.00475   0.04208   0.00000   0.03383   1.96550
   A21        1.90476   0.00782  -0.01175   0.00000  -0.02335   1.88141
   A22        1.93178   0.00835   0.04229   0.00000   0.03830   1.97007
   A23        1.94457   0.01810   0.06787   0.00000   0.06408   2.00865
   A24        1.91775   0.00843   0.01424   0.00000   0.00823   1.92598
   A25        1.95670   0.02061   0.09214   0.00000   0.08418   2.04088
   A26        1.95720   0.00903   0.09313   0.00000   0.08515   2.04235
   A27        1.89671   0.00645  -0.02786   0.00000  -0.03954   1.85716
   A28        3.13344  -0.00735  -0.01630   0.00000  -0.01641   3.11704
   A29        3.13005  -0.00519  -0.02308   0.00000  -0.02253   3.10752
   A30        3.15013   0.00767   0.01707   0.00000   0.01742   3.16755
   A31        3.14195   0.00707   0.00071   0.00000   0.00126   3.14321
   A32        3.16800   0.00904   0.05282   0.00000   0.05292   3.22092
   A33        3.16426   0.00796   0.04534   0.00000   0.04505   3.20931
    D1       -0.66194  -0.00986  -0.01227   0.00000  -0.01376  -0.67571
    D2        1.48402   0.02173   0.09087   0.00000   0.09211   1.57613
    D3        0.89479  -0.01366  -0.04038   0.00000  -0.04217   0.85263
    D4        3.04076   0.01792   0.06276   0.00000   0.06370   3.10446
    D5        2.45324  -0.01889  -0.06508   0.00000  -0.06668   2.38656
    D6       -1.68398   0.01269   0.03806   0.00000   0.03919  -1.64479
    D7       -2.26947  -0.02162  -0.08572   0.00000  -0.08721  -2.35668
    D8       -0.12350   0.00997   0.01742   0.00000   0.01866  -0.10485
    D9       -2.57822  -0.02789  -0.09961   0.00000  -0.10023  -2.67846
   D10       -0.43423  -0.00018  -0.00041   0.00000   0.00013  -0.43410
   D11       -0.43488   0.00026  -0.00172   0.00000  -0.00136  -0.43624
   D12        1.70911   0.02798   0.09747   0.00000   0.09900   1.80811
   D13       -0.99665  -0.01037  -0.01506   0.00000  -0.01679  -1.01344
   D14        1.15305   0.02854   0.09555   0.00000   0.09802   1.25107
   D15        2.14459  -0.01745  -0.01577   0.00000  -0.01805   2.12654
   D16       -1.98889   0.02146   0.09484   0.00000   0.09676  -1.89213
   D17       -2.57848  -0.01909  -0.03712   0.00000  -0.03906  -2.61754
   D18       -0.42878   0.01982   0.07349   0.00000   0.07575  -0.35303
   D19        0.57151  -0.01157  -0.02034   0.00000  -0.02278   0.54873
   D20        2.72121   0.02734   0.09028   0.00000   0.09203   2.81324
   D21       -1.91901  -0.02221  -0.09281   0.00000  -0.09456  -2.01357
   D22        0.22707   0.00923   0.01056   0.00000   0.01199   0.23905
   D23        2.80735  -0.01854  -0.06487   0.00000  -0.06687   2.74048
   D24       -1.32976   0.01289   0.03850   0.00000   0.03968  -1.29008
   D25        1.24899  -0.01325  -0.04000   0.00000  -0.04164   1.20734
   D26       -2.88812   0.01819   0.06337   0.00000   0.06491  -2.82321
   D27       -0.31151  -0.01046  -0.01940   0.00000  -0.02128  -0.33278
   D28        1.83457   0.02097   0.08397   0.00000   0.08527   1.91984
   D29        0.82165  -0.01409  -0.05293   0.00000  -0.05461   0.76704
   D30        2.96109   0.01526   0.03715   0.00000   0.03826   2.99934
   D31        2.38600  -0.01903  -0.06582   0.00000  -0.06810   2.31790
   D32       -1.75775   0.01033   0.02427   0.00000   0.02476  -1.73299
   D33       -2.32810  -0.02154  -0.06924   0.00000  -0.07107  -2.39916
   D34       -0.18866   0.00781   0.02085   0.00000   0.02179  -0.16687
   D35       -0.74376  -0.01351  -0.04216   0.00000  -0.04327  -0.78703
   D36        1.39568   0.01584   0.04793   0.00000   0.04959   1.44526
   D37       -1.29703   0.00289   0.02037   0.00000   0.02190  -1.27513
   D38        2.84951  -0.02490  -0.06412   0.00000  -0.06294   2.78657
   D39        0.83429   0.02855   0.09422   0.00000   0.09441   0.92869
   D40       -1.30235   0.00076   0.00973   0.00000   0.00956  -1.29279
   D41       -2.12383   0.01510   0.06301   0.00000   0.06433  -2.05950
   D42        2.02003  -0.01535  -0.02684   0.00000  -0.02918   1.99085
   D43        2.59494   0.01994   0.07578   0.00000   0.07733   2.67228
   D44        0.45562  -0.01051  -0.01408   0.00000  -0.01618   0.43944
   D45        1.02592   0.02271   0.07933   0.00000   0.08076   1.10668
   D46       -1.11340  -0.00775  -0.01053   0.00000  -0.01275  -1.12615
   D47       -0.55826   0.01470   0.05256   0.00000   0.05423  -0.50403
   D48       -2.69758  -0.01575  -0.03729   0.00000  -0.03928  -2.73686
         Item               Value     Threshold  Converged?
 Maximum Force            0.086202     0.000450     NO 
 RMS     Force            0.031669     0.000300     NO 
 Maximum Displacement     0.419651     0.001800     NO 
 RMS     Displacement     0.124804     0.001200     NO 
 Predicted change in Energy=-1.265527D-01
 GradGradGradGradGradGradGradGradGradGradGradGradGradGradGradGradGradGrad

                          Input orientation:                          
 ---------------------------------------------------------------------
 Center     Atomic      Atomic             Coordinates (Angstroms)
 Number     Number       Type             X           Y           Z
 ---------------------------------------------------------------------
      1         78           0       -0.318814    0.338857    0.042407
      2          7           0        1.779510    0.333871    0.071010
      3          8           0        2.352282    1.168628   -0.687669
      4          8           0        2.287092    0.403235    1.235812
      5          7           0       -0.272359    2.462644   -0.097867
      6          7           0       -2.431348    0.395884    0.013581
      7          8           0       -3.099617    0.012111    1.019423
      8          8           0       -2.883901    1.525271   -0.344520
      9          8           0        0.309287    3.129256    0.799842
     10          8           0        0.116838    2.908633   -1.221328
     11          7           0       -0.358346    0.289373   -2.045821
     12          8           0        0.470809   -0.535224   -2.534975
     13          8           0       -1.508917    0.116949   -2.559409
     14         35           0       -0.285611   -2.153590    0.010243
     15          7           0       -0.334130    0.245179    2.172414
     16          8           0       -0.868534   -0.771906    2.696396
     17          8           0       -0.795189    1.247104    2.787371
 ---------------------------------------------------------------------
                    Distance matrix (angstroms):
                    1          2          3          4          5
     1  Pt   0.000000
[...]
         Item               Value     Threshold  Converged?
 Maximum Force            0.000017     0.000450     YES
 RMS     Force            0.000005     0.000300     YES
 Maximum Displacement     0.001999     0.001800     NO 
 RMS     Displacement     0.000469     0.001200     YES
 Predicted change in Energy=-1.634927D-08
 GradGradGradGradGradGradGradGradGradGradGradGradGradGradGradGradGradGrad

 1\1\GINC-NEQC17\Freq\RB3LYP\Gen\Br1N5O10Pt1(2-)\DIEGO\18-Aug-2021\0\\#
 N Geom=AllCheck Guess=TCheck SCRF=Check GenChk RB3LYP/ChkBas Freq\\Est
 rutura 67\\-2,1\Pt,-0.3716051389,0.341648969,0.0988254459\N,1.77040848
 28,0.1812246406,0.1888014027\O,2.4133289402,1.0643759175,-0.3583859356
 \O,2.2849511003,-0.7450188003,0.787446441\N,-0.125213628,2.4374300871,
 -0.0429426981\N,-2.4959773068,0.574734284,0.0330752245\O,-3.1663919019
 ,0.0230450332,0.8885291901\O,-2.970278031,1.2650103711,-0.8522843749\O
 ,0.4799988271,2.9906779357,0.8547423215\O,-0.5738463455,3.0009006428,-
 1.0200283283\N,-0.3260411788,0.1797678318,-2.0335961633\O,0.6148931715
 ,0.6701106232,-2.6346381876\O,-1.2542248332,-0.3834864571,-2.587565250
 8\Br,-0.6720106255,-2.2339696471,0.220203465\N,-0.4595845722,0.5359282
 096,2.22277183\O,0.2357496928,-0.1679714239,2.9322230995\O,-1.22510519
 3,1.3818666227,2.6597300487\\Version=EM64L-G09RevD.01\State=1-A\HF=-37
 18.2068479\RMSD=6.110e-09\RMSF=1.884e-05\ZeroPoint=0.0604055\Thermal=0
 .0800346\Dipole=-0.045659,-0.427698,0.0109723\DipoleDeriv=0.9521502,0.
 0691776,-0.045602,0.0537336,1.0328447,0.1889213,-0.0602427,0.2116576,0
 .9399546,2.3786041,-0.0890915,0.0395206,-0.0029447,1.6113211,-0.763390
 4,0.0636223,-0.7989487,0.8589123,-1.787585,-0.3166572,0.2420124,-0.430
 5372,-0.8277991,0.3583687,0.1979908,0.3230465,-0.4919601,-1.7265117,0.
 5190152,-0.3210423,0.4677621,-0.983095,0.3886546,-0.3085599,0.4199507,
 -0.5419604,0.8931422,0.3526452,0.7059734,0.3023076,3.0129881,-0.162037
 6,0.7280742,-0.2415283,1.7349409,2.415648,-0.1075824,-0.078599,-0.1559
 063,1.0858265,-0.8243757,-0.06933,-0.8891522,1.4416555,-1.8601891,-0.1
 909637,0.4192179,-0.188249,-0.5868523,0.3437345,0.464495,0.3967097,-0.
 8208009,-1.6617196,0.3615308,-0.3783629,0.4443938,-0.6589493,0.4451323
 ,-0.391303,0.4596964,-0.8493844,-0.5861936,-0.5292595,-0.4025089,-0.40
 44886,-1.8564235,-0.2837608,-0.4208022,-0.4620073,-0.8769377,-0.427230
 1,0.0815086,-0.2810271,0.039789,-1.8847047,0.4790694,-0.3004646,0.6964
 038,-0.9758262,1.7114648,0.7601389,-0.0766333,0.7356815,0.8174997,0.09
 55823,-0.068498,0.1478421,2.3944504,-0.9631185,-0.2887894,0.4993733,-0
 .3238115,-0.456505,0.1572016,0.4841233,0.1028846,-1.7772822,-0.9264481
 ,-0.4370258,-0.4180279,-0.3911088,-0.5800809,-0.336695,-0.3879143,-0.3
 66763,-1.7201034,-0.2088397,-0.1631602,0.0334184,-0.1433079,-1.5153495
 ,0.061699,0.0577831,0.02681,-0.2036958,1.1965671,-0.8778054,0.0723519,
 -0.8586493,1.3215528,0.0146816,0.0573762,0.0213783,2.3809092,-0.665264
 6,0.3608212,-0.3620039,0.3450466,-0.7042969,0.2861813,-0.3515988,0.315
 5574,-1.9120004,-0.7344765,0.4954975,0.3519393,0.5102892,-0.8279766,-0
 .4489673,0.3052486,-0.3635376,-1.5808713\Polar=206.4587423,5.2490751,2
 30.1073206,6.0047473,-15.0087023,207.68339\PG=C01 [X(Br1N5O10Pt1)]\NIm
 ag=0\\0.26395094,0.00586205,0.30930064,0.00436105,-0.02246077,0.271739
 53,-0.06635265,-0.00042507,-0.00010926,0.57609969,-0.00134857,-0.03978
 130,-0.01056815,0.00767880,0.68046156,-0.00080991,-0.00851050,-0.05484
 728,0.00064295,-0.34559754,0.35762684,-0.00505204,-0.01798998,0.013538
 84,-0.28060704,-0.19054003,0.11641352,0.24357176,-0.00099446,-0.000317
 75,0.00844773,-0.18350611,-0.30230859,0.15957848,0.20600258,0.40325583
 ,0.00203366,0.00765927,0.01028280,0.11312912,0.16163589,-0.14541709,-0
 .12741112,-0.23832985,0.17255154,0.00205265,0.01892617,-0.01340445,-0.
 23284419,0.17599069,-0.11412096,0.05472483,-0.01863307,0.01192406,0.18
 917741,0.00120822,-0.00330343,0.01069051,0.17022630,-0.34611913,0.1938
 1750,-0.00042030,-0.09932551,0.07284801,-0.17170751,0.44858920,-0.0010
 2293,0.00983935,0.00827517,-0.11202270,0.19543490,-0.17154936,0.000813
 01,0.07280496,-0.02895582,0.11275174,-0.27672030,0.19657161,-0.0435630
 6,-0.00272687,0.01056616,0.00038868,0.00973759,-0.00306858,-0.00329750
 ,-0.00256866,0.00068783,-0.00130137,-0.00132450,0.00101768,0.34923932,
 0.00009808,-0.06621113,-0.00069073,0.02480044,-0.00423611,-0.00080827,
 -0.00828013,-0.00577608,0.00168757,-0.00759336,0.00218489,-0.00088670,
 0.05001091,0.55058608,0.01127094,0.00262755,-0.03060519,0.00051543,0.0
 0415494,-0.00278602,-0.00020757,-0.00431725,-0.00031698,-0.00017695,-0
 .00070426,0.00115853,0.32935715,-0.03573665,0.74950923,-0.06731645,0.0
 0531187,-0.00259343,0.00827336,0.00216567,-0.00049232,0.00733947,0.001
 45823,-0.00072654,0.00634460,-0.00293212,0.00165065,-0.00874165,-0.023
 40110,0.00437987,0.57875509,0.00499110,-0.05561514,-0.00900011,-0.0005
 0437,0.01942980,0.00307886,0.00251133,-0.00224136,-0.00157582,-0.00464
 016,-0.00096727,-0.00226955,-0.00902744,0.00114708,-0.00461704,-0.0088
 9969,0.40153921,-0.00356383,-0.01037040,-0.03861395,-0.00000385,0.0036
 7032,0.02042817,-0.00198267,-0.00169424,-0.00355424,0.00214581,-0.0017
 6180,-0.00328182,0.00306378,-0.00394441,0.00702259,-0.04328474,-0.3594
 5529,0.64543954,-0.00358003,-0.01426607,0.01930311,0.00728221,0.001758
 97,-0.00298890,-0.00980319,-0.00373375,0.00231197,-0.01172626,0.005350
 52,-0.00294749,0.00175640,0.00751512,-0.00072227,-0.29465424,-0.119636
 60,0.19877055,0.25640288,-0.00043377,0.00830227,0.00728512,0.00099145,
 -0.00304532,-0.00125604,-0.00218034,-0.00023714,0.00067571,-0.00145040
 ,0.00147275,-0.00017813,0.00167540,0.00022966,0.00111409,-0.11489846,-
 0.15113198,0.15983236,0.13518322,0.18365440,0.00296488,0.00973164,-0.0
 0016089,-0.00218107,-0.00176124,-0.00232481,0.00372167,0.00165270,-0.0
 0019980,0.00406250,-0.00174073,0.00183599,-0.00178701,-0.00084351,-0.0
 0228033,0.19342247,0.16071856,-0.29574535,-0.21909561,-0.24111630,0.38
 512366,-0.00050967,0.01454597,-0.01822140,0.00659157,-0.00246280,0.004
 22786,-0.01098895,-0.00376174,0.00141450,-0.00881116,0.00435210,-0.003
 17952,0.00349622,0.00637983,-0.00055610,-0.21719708,0.12741316,-0.1523
 1153,0.05241864,-0.01958079,0.02192614,0.17713157,0.00103061,0.0066055
 7,0.01183521,-0.00243129,-0.00301185,-0.00275895,0.00411863,0.00225737
 ,-0.00023149,0.00432075,-0.00146969,0.00175077,0.00221607,-0.00509851,
 0.00636902,0.12353260,-0.20980084,0.20899586,-0.00699970,-0.03746924,0
 .07547601,-0.12059957,0.24633866,-0.00093703,0.01006459,-0.00110780,0.
 00212919,-0.00171641,-0.00156543,-0.00443893,-0.00145504,0.00138430,-0
 .00394423,0.00207923,-0.00076755,-0.00072223,0.00473242,-0.00495317,-0
 .14792490,0.20992368,-0.31495581,0.00459791,0.07695175,-0.08924245,0.1
 4544536,-0.29362353,0.40758984,0.00582405,-0.00524600,-0.01041027,-0.0
 0476778,-0.00408549,0.00330897,0.00188826,0.00595139,-0.00004814,0.001
 01522,0.00124391,-0.00124015,-0.17910324,-0.12666535,-0.18763824,0.002
 72687,0.00144319,-0.00045078,-0.00059430,-0.00023328,0.00039539,-0.001
 52030,-0.00069005,-0.00010264,0.19662822,-0.01457445,-0.00763843,-0.01
 697417,-0.00818496,-0.00002992,0.00056264,0.00446362,0.00257022,-0.001
 00198,0.00301789,-0.00061317,0.00007896,-0.13096888,-0.23964651,-0.174
 64951,0.00716240,-0.00028220,0.00049743,-0.00259099,-0.00000329,0.0004
 5704,-0.00285433,0.00079077,-0.00126738,0.13582002,0.20835339,-0.00882
 002,-0.00409642,-0.00078557,-0.00299116,-0.00115924,0.00135515,0.00191
 482,0.00226019,-0.00066927,0.00087821,-0.00001616,-0.00033754,-0.18425
 385,-0.16376835,-0.32792746,0.00123944,0.00163738,-0.00210979,-0.00057
 418,-0.00046148,0.00103821,-0.00092600,-0.00201221,0.00110906,0.261957
 07,0.17988990,0.43415530,0.01075485,0.00073712,-0.00632128,0.00041253,
 -0.00075560,-0.00006839,0.00009177,0.00022121,0.00046558,0.00046041,-0
 .00026821,0.00014496,-0.12412431,0.07701293,-0.15238856,-0.00195503,0.
 00444306,-0.00504759,-0.00017344,-0.00136682,0.00206616,-0.00179527,-0
 .00575938,0.00295787,-0.01970491,0.01045692,-0.07202699,0.13679958,0.0
 0791132,-0.00794796,0.02184924,-0.00760197,-0.00036972,0.00088584,0.00
 342684,0.00181332,-0.00123039,0.00285322,-0.00018007,0.00015770,0.0823
 9598,-0.24511638,0.20759924,0.00805071,0.00105617,0.00174294,-0.002905
 72,-0.00034479,0.00018521,-0.00475688,0.00073388,-0.00174259,-0.001318
 72,0.04992774,-0.01167660,-0.08688609,0.21391397,-0.00796965,0.0063385
 9,-0.00489046,0.00257755,-0.00068659,0.00035765,-0.00084255,0.00032140
 ,0.00080972,-0.00073144,-0.00004649,-0.00026371,-0.15435299,0.19918368
 ,-0.38776206,-0.00542943,0.00208213,-0.00478233,0.00138514,-0.00047697
 ,0.00123183,0.00110515,-0.00398309,0.00305472,-0.06810001,0.00934216,-
 0.10520674,0.22926353,-0.21548373,0.49703542,-0.04068867,0.01379229,-0
 .00114985,-0.00017483,0.00702048,-0.00862611,0.00046793,-0.00311947,0.
 00675005,-0.00010037,-0.00246553,0.00111459,-0.00214141,0.00263092,-0.
 00498030,-0.00190331,-0.00374657,0.00936872,-0.00027327,0.00139092,-0.
 00111419,-0.00089859,0.00089562,-0.00534916,0.00078932,-0.00116040,0.0
 0076659,0.00002875,-0.00065816,0.00431511,0.71644921,0.01485957,-0.056
 07049,0.00415798,0.00074885,0.00478676,-0.00116145,-0.00065401,-0.0024
 5808,0.00324853,-0.00008431,-0.00150343,0.00006102,-0.00110949,-0.0046
 2982,-0.00822886,0.00399293,-0.00290954,0.00266242,-0.00102482,0.00085
 922,-0.00026404,-0.00113419,0.00070102,-0.00422533,0.00051187,0.000168
 40,0.00121613,-0.00045977,-0.00034306,0.00045405,0.32350831,0.33058795
 ,0.00255549,0.00279994,-0.07009426,-0.02220261,-0.00240748,-0.00337570
 ,0.00695198,0.00364219,-0.00434690,0.00682064,-0.00129040,0.00157573,-
 0.00124264,-0.02307643,-0.00020963,0.02129916,-0.00435555,-0.00116408,
 -0.00663088,-0.00002244,0.00156166,-0.00687942,0.00244430,-0.00484670,
 0.00166710,0.00684604,0.00146565,-0.00071625,0.00809431,-0.00531044,-0
 .02008541,0.02129006,0.58058822,-0.00130553,-0.00968103,0.00216088,-0.
 00575247,-0.00715933,0.00269629,0.00070361,0.00314544,-0.00849693,0.00
 091347,0.00237622,-0.00059900,0.00087239,-0.00384128,0.00223474,0.0016
 0597,0.00075484,-0.00123684,-0.00006175,-0.00030381,-0.00014293,-0.000
 11194,0.00028537,0.00145999,-0.00022334,0.00120055,-0.00020222,-0.0005
 9114,0.00203183,-0.00270089,-0.34636467,-0.15580674,0.19493192,0.45776
 926,-0.00802432,0.01058753,-0.00112553,-0.00284422,-0.00300989,0.00142
 526,0.00017058,0.00124050,-0.00355799,0.00081861,0.00096477,-0.0002579
 2,0.00211349,-0.00284930,0.00387033,-0.00006641,0.00119051,-0.00132468
 ,0.00004405,-0.00040858,0.00017611,0.00039597,-0.00024990,0.00156598,-
 0.00077041,0.00048145,-0.00111879,-0.00009316,0.00092682,-0.00408070,-
 0.15766687,-0.12833345,0.09545380,0.23397534,0.14339303,0.01974033,0.0
 0991526,-0.00179473,0.00671486,-0.00021254,0.00213046,-0.00487789,-0.0
 0186250,-0.00267996,-0.00312060,0.00118366,-0.00122613,-0.00036619,0.0
 0862717,-0.00140777,-0.00662175,0.00111713,-0.00057072,0.00256787,0.00
 016272,-0.00012788,0.00260740,-0.00112849,0.00081893,-0.00027700,-0.00
 279746,0.00001834,0.00049427,-0.00452720,0.00303906,0.20132857,0.09714
 217,-0.26557475,-0.20871836,-0.10381326,0.22633029,-0.00243125,-0.0090
 7890,-0.00079725,0.00094174,-0.00257175,0.00204110,-0.00005751,0.00108
 051,-0.00240172,-0.00010523,0.00089201,-0.00022977,0.00048629,0.001689
 63,0.00075186,-0.00429941,0.00532809,-0.00480841,0.00072780,-0.0015902
 3,0.00105218,0.00114246,-0.00050665,0.00750408,-0.00032808,-0.00032220
 ,-0.00000217,0.00036817,-0.00065220,-0.00055996,-0.33921463,-0.1779943
 4,-0.17525841,-0.10670028,-0.06980766,-0.00710978,0.44941681,-0.011654
 76,0.00812075,-0.00227659,0.00102464,-0.00178450,0.00073609,-0.0001847
 2,0.00067656,-0.00135389,-0.00045415,0.00081358,-0.00012394,-0.0002272
 0,0.00222574,0.00016537,-0.00151858,0.00020698,-0.00000793,0.00084815,
 0.00003010,-0.00054143,0.00166826,-0.00110596,-0.00049329,0.00001775,-
 0.00024651,0.00023927,0.00066064,-0.00098049,0.00037515,-0.17749247,-0
 .15593913,-0.11238292,-0.06946149,-0.02166978,-0.00093064,0.25311113,0
 .17396368,-0.02055257,-0.01168544,-0.00069003,0.00653830,0.00005696,0.
 00053988,-0.00228631,-0.00072435,0.00059229,-0.00232507,0.00047966,-0.
 00020846,0.00009146,0.00760899,-0.00118456,-0.00686279,0.00180900,-0.0
 0194868,0.00268338,-0.00036301,-0.00012119,0.00388380,-0.00206335,0.00
 137936,-0.00059760,-0.00258680,0.00001687,0.00065715,-0.00336432,0.001
 67719,-0.18066576,-0.11706024,-0.24784610,0.01139344,0.00956761,0.0546
 9274,0.18441557,0.11709670,0.20703501,-0.01155657,-0.00588989,0.000799
 82,-0.00422043,0.00171652,-0.00275752,0.00042589,-0.00096254,0.0008143
 7,-0.00195517,-0.00479334,0.00126963,0.00728358,0.00145872,-0.00091901
 ,-0.00419332,0.00129117,0.00266157,0.00135598,0.00357550,-0.00162892,0
 .00074213,0.00006023,-0.00069689,-0.00157661,-0.00048653,-0.00005992,-
 0.00108006,-0.00211916,0.00142809,-0.00116898,-0.00163744,-0.00013544,
 0.00060120,0.00046261,-0.00002228,0.00068615,0.00132661,-0.00032328,0.
 01446869,-0.00488983,-0.06484007,0.00411156,-0.00105564,-0.00067858,0.
 00034196,-0.00028134,0.00067311,-0.00037278,-0.00120036,-0.00022927,-0
 .00040702,0.00200285,0.02048516,-0.00203497,0.00120071,-0.00092519,-0.
 00046244,0.00127469,-0.00173703,0.00007744,0.00038678,0.00028255,-0.00
 012222,-0.00510603,-0.01327472,-0.00510864,0.00156361,-0.01310209,0.00
 680824,0.00040842,-0.00173999,0.00148863,0.00014792,0.00025906,0.00027
 972,-0.00027581,-0.00140233,0.00136289,0.00655252,0.07723665,-0.000287
 06,0.00345662,-0.01336342,-0.00065759,0.00145313,-0.00063128,0.0001270
 9,-0.00040161,0.00031156,-0.00055560,-0.00124685,0.00129905,-0.0005843
 2,-0.00003543,0.00664391,0.00038521,0.00101909,-0.00097965,0.00064482,
 -0.00155248,0.00062236,-0.00000294,-0.00043981,0.00050117,0.00087549,0
 .00166649,-0.00039001,0.00032699,-0.00115301,-0.00053595,-0.00282434,0
 .00181637,-0.00472415,0.00071520,-0.00002206,0.00070395,0.00211031,0.0
 0384667,-0.00008055,0.00096387,-0.00455050,0.01270476,-0.04940350,-0.0
 1566663,0.00314704,-0.00390998,-0.00391707,0.00796334,0.00056979,0.001
 75070,-0.00119998,0.00153670,0.00175133,-0.00430117,-0.00320529,-0.003
 90178,-0.00306896,-0.00054491,0.00270433,-0.00808821,-0.00135898,-0.00
 024716,0.00362339,-0.00076991,-0.00084626,0.00080916,0.00045369,0.0010
 7635,0.00528399,0.00119283,0.00084677,0.00051267,0.01990670,0.00014220
 ,-0.00097527,-0.00111017,0.00108736,-0.00496016,-0.00142977,0.00197124
 ,0.00437097,-0.00055304,-0.00043721,-0.00267014,0.49193860,-0.01720848
 ,-0.04760016,-0.00566679,0.00000845,0.00513905,-0.00325670,0.00002384,
 -0.00157238,0.00022534,0.00024600,-0.00304651,0.00425479,0.00227048,0.
 00135517,0.01002713,-0.00417496,-0.00288361,0.00446268,0.00186825,0.00
 052045,-0.00554709,0.00121622,0.00104199,-0.00038938,-0.00041915,-0.00
 286888,-0.00314444,-0.00099030,-0.00111205,-0.00114682,0.00048746,0.02
 107046,0.00003801,0.00141359,-0.00366090,-0.00210943,0.00174438,-0.002
 65033,0.00367077,0.00112254,-0.00082446,-0.00049445,-0.37107833,0.5409
 3814,-0.00036428,-0.00663060,-0.06964654,0.02177469,-0.00610420,-0.000
 73507,-0.00684032,-0.00041393,0.00063974,-0.00644944,0.00481817,-0.004
 88689,0.00496559,0.02336623,-0.00486826,-0.02191447,0.00025535,-0.0030
 2769,0.00760369,0.00073182,-0.00349596,0.00649321,-0.00158690,0.001817
 63,-0.00272679,-0.00784132,-0.00448756,-0.00029408,-0.00679228,0.00253
 468,0.00108355,-0.00210570,0.00855626,-0.00232875,-0.00005329,0.006758
 20,0.00185774,0.00220295,0.00640856,-0.00068503,-0.00051718,-0.0034208
 3,0.04619086,-0.02759872,0.58995369,0.00620090,0.01001795,-0.00154013,
 -0.00280970,0.00574571,-0.00287954,0.00019600,-0.00189185,0.00066829,0
 .00106948,-0.00297822,0.00529901,0.00073328,-0.00064242,0.00126246,0.0
 0113746,-0.00038113,0.00075710,-0.00016705,-0.00041888,-0.00066679,0.0
 0007536,0.00006168,0.00026056,0.00019118,-0.00007699,-0.00122084,-0.00
 038097,0.00029648,-0.00023006,-0.00251098,-0.00158062,0.00167669,0.001
 40973,0.00062342,-0.00213193,-0.00108248,-0.00096470,-0.00360770,0.000
 44881,-0.00016045,0.00077366,-0.21324411,0.16924690,-0.16653651,0.2669
 4993,0.00910468,0.00469510,0.00129745,0.00282923,-0.00393623,0.0018306
 2,-0.00082324,0.00101033,-0.00026425,-0.00089209,0.00200003,-0.0018908
 4,0.00017062,0.00101779,-0.00093820,-0.00007439,0.00114357,-0.00145265
 ,-0.00042830,0.00008587,0.00163720,-0.00008007,-0.00043340,0.00004216,
 -0.00079292,-0.00024077,0.00050322,0.00007561,0.00002164,-0.00017352,-
 0.00151686,-0.00253511,-0.00106744,-0.00118456,-0.00001853,0.00315145,
 0.00101157,0.00121028,0.00174697,-0.00127892,-0.00059845,-0.00321113,0
 .17039253,-0.21953193,0.16343390,-0.25611256,0.28299424,-0.01531518,0.
 01759946,-0.00249288,-0.00770791,0.00229799,0.00116436,0.00322041,0.00
 042299,-0.00060718,0.00410039,-0.00114549,-0.00016644,-0.00179110,-0.0
 0789227,0.00016959,0.00701640,-0.00013267,-0.00023476,-0.00304232,-0.0
 0063181,0.00067032,-0.00251015,0.00065341,-0.00008166,0.00156213,0.003
 32436,0.00101642,0.00012478,0.00277737,-0.00039469,0.00359035,-0.00362
 754,0.00783733,0.00432732,0.00267422,-0.01189497,-0.00519885,-0.002664
 56,-0.01086740,-0.00075947,-0.00068297,0.00080060,-0.17035573,0.167432
 45,-0.31657054,0.19224461,-0.19243886,0.28005339,0.00297601,0.01177701
 ,0.00067042,0.00144929,0.00102622,-0.00148178,-0.00017308,-0.00043839,
 0.00008502,-0.00045104,-0.00051087,0.00148147,0.00122170,0.00272883,0.
 00088553,-0.00537743,-0.00404432,0.00401091,0.00244860,-0.00011253,-0.
 00661826,0.00100493,0.00131134,-0.00104811,-0.00169822,-0.00197801,-0.
 00096279,-0.00030373,-0.00091425,0.00032974,-0.00220219,-0.00227797,-0
 .00177665,-0.00165436,-0.00041837,0.00475265,0.00187924,0.00132963,0.0
 0318700,0.00029175,-0.00013082,0.00065936,-0.24006866,0.21422311,0.118
 17034,-0.05821683,0.07959965,-0.00950566,0.29887401,0.01406299,0.00171
 399,-0.00091197,-0.00175452,-0.00150604,0.00109221,0.00063668,0.000739
 65,-0.00006188,0.00048208,0.00073226,-0.00164806,-0.00464032,-0.005667
 73,-0.00470094,0.00309059,0.00104381,-0.00139016,-0.00225702,-0.000777
 38,0.00170242,-0.00112790,-0.00011243,-0.00032464,0.00033929,0.0025524
 3,0.00681625,0.00140823,0.00110308,0.00117249,-0.00230811,-0.00171171,
 0.00250538,0.00210712,0.00115665,-0.00419776,-0.00205758,-0.00146864,-
 0.00555202,-0.00039859,0.00041565,-0.00015105,0.21437163,-0.28431404,-
 0.13516432,0.07921568,-0.06688443,0.01203394,-0.30117026,0.35298488,0.
 01671610,-0.01627814,-0.00120449,-0.00614593,0.00150926,-0.00037048,0.
 00218603,0.00006815,0.00017528,0.00214539,-0.00124426,0.00092764,-0.00
 158073,-0.00752332,-0.00020240,0.00645718,-0.00023514,-0.00192143,-0.0
 0386679,-0.00069491,0.00161463,-0.00251637,0.00030324,-0.00013445,0.00
 182548,0.00445358,0.00173896,0.00036187,0.00267825,-0.00059389,-0.0035
 2239,0.00462443,0.00590786,0.00450612,0.00062091,-0.00921507,-0.003366
 51,-0.00388702,-0.00939493,0.00005039,-0.00021171,0.00053847,0.1237182
 2,-0.14075736,-0.20552940,-0.02412888,0.02779393,0.05159850,-0.1128391
 8,0.12878010,0.16606521\\-0.00002952,-0.00000261,-0.00002027,0.0000003
 2,-0.00003834,0.00001898,-0.00000276,-0.00002735,-0.00001113,-0.000007
 90,-0.00001642,0.00000853,0.00001617,0.00000740,-0.00001025,0.00000567
 ,0.00003216,-0.00000992,0.00000196,0.00003393,0.00001510,0.00000217,0.
 00001182,0.00000093,0.00002618,-0.00000003,-0.00002555,0.00002124,-0.0
 0001428,-0.00002884,-0.00000350,-0.00001608,0.00000476,-0.00001264,-0.
 00004325,-0.00000195,-0.00000836,-0.00002071,0.00001927,-0.00002543,0.
 00000733,0.00002885,0.00000420,0.00003177,0.00000976,0.00000356,0.0000
 1785,0.00000966,0.00000863,0.00003679,-0.00000793\\\@


 I do not feel obliged to believe that the same God who
 has endowed us with sense, reason, and intellect has
 intended us to forgo their use.
                   --Galileo Galilei
 Job cpu time:       0 days  0 hours 43 minutes  5.4 seconds.
 File lengths (MBytes):  RWF=    252 Int=      0 D2E=      0 Chk=     11 Scr=      1
 Normal termination of Gaussian 09 at Wed Aug 18 22:35:10 2021.
