 Entering Gaussian System, Link 0=g09
 Input=estrutura57_D2O.com
 Output=estrutura57_D2O.log
 Initial command:
 /home/scr/programs/g09/l1.exe "/home/scr/diego/Gau-25382.inp" -scrdir="/home/scr/diego/"
 Entering Link 1 = /home/scr/programs/g09/l1.exe PID=     25384.
  
 Copyright (c) 1988,1990,1992,1993,1995,1998,2003,2009,2013,
            Gaussian, Inc.  All Rights Reserved.
  
 This is part of the Gaussian(R) 09 program.  It is based on
 the Gaussian(R) 03 system (copyright 2003, Gaussian, Inc.),
 the Gaussian(R) 98 system (copyright 1998, Gaussian, Inc.),
 the Gaussian(R) 94 system (copyright 1995, Gaussian, Inc.),
 the Gaussian 92(TM) system (copyright 1992, Gaussian, Inc.),
 the Gaussian 90(TM) system (copyright 1990, Gaussian, Inc.),
 the Gaussian 88(TM) system (copyright 1988, Gaussian, Inc.),
 the Gaussian 86(TM) system (copyright 1986, Carnegie Mellon
 University), and the Gaussian 82(TM) system (copyright 1983,
 Carnegie Mellon University). Gaussian is a federally registered
 trademark of Gaussian, Inc.
  
 This software contains proprietary and confidential information,
 including trade secrets, belonging to Gaussian, Inc.
  
 This software is provided under written license and may be
 used, copied, transmitted, or stored only in accord with that
 written license.
  
 The following legend is applicable only to US Government
 contracts under FAR:
  
                    RESTRICTED RIGHTS LEGEND
  
 Use, reproduction and disclosure by the US Government is
 subject to restrictions as set forth in subparagraphs (a)
 and (c) of the Commercial Computer Software - Restricted
 Rights clause in FAR 52.227-19.
  
 Gaussian, Inc.
 340 Quinnipiac St., Bldg. 40, Wallingford CT 06492
  
  
 ---------------------------------------------------------------
 Warning -- This program may not be used in any manner that
 competes with the business of Gaussian, Inc. or will provide
 assistance to any competitor of Gaussian, Inc.  The licensee
 of this program is prohibited from giving any competitor of
 Gaussian, Inc. access to this program.  By using this program,
 the user acknowledges that Gaussian, Inc. is engaged in the
 business of creating and licensing software in the field of
 computational chemistry and represents and warrants to the
 licensee that it is not a competitor of Gaussian, Inc. and that
 it will not use this program in any manner prohibited above.
 ---------------------------------------------------------------
  

 Cite this work as:
 Gaussian 09, Revision D.01,
 M. J. Frisch, G. W. Trucks, H. B. Schlegel, G. E. Scuseria, 
 M. A. Robb, J. R. Cheeseman, G. Scalmani, V. Barone, B. Mennucci, 
 G. A. Petersson, H. Nakatsuji, M. Caricato, X. Li, H. P. Hratchian, 
 A. F. Izmaylov, J. Bloino, G. Zheng, J. L. Sonnenberg, M. Hada, 
 M. Ehara, K. Toyota, R. Fukuda, J. Hasegawa, M. Ishida, T. Nakajima, 
 Y. Honda, O. Kitao, H. Nakai, T. Vreven, J. A. Montgomery, Jr., 
 J. E. Peralta, F. Ogliaro, M. Bearpark, J. J. Heyd, E. Brothers, 
 K. N. Kudin, V. N. Staroverov, T. Keith, R. Kobayashi, J. Normand, 
 K. Raghavachari, A. Rendell, J. C. Burant, S. S. Iyengar, J. Tomasi, 
 M. Cossi, N. Rega, J. M. Millam, M. Klene, J. E. Knox, J. B. Cross, 
 V. Bakken, C. Adamo, J. Jaramillo, R. Gomperts, R. E. Stratmann, 
 O. Yazyev, A. J. Austin, R. Cammi, C. Pomelli, J. W. Ochterski, 
 R. L. Martin, K. Morokuma, V. G. Zakrzewski, G. A. Voth, 
 P. Salvador, J. J. Dannenberg, S. Dapprich, A. D. Daniels, 
 O. Farkas, J. B. Foresman, J. V. Ortiz, J. Cioslowski, 
 and D. J. Fox, Gaussian, Inc., Wallingford CT, 2013.
 
 ******************************************
 Gaussian 09:  EM64L-G09RevD.01 24-Apr-2013
                18-Aug-2021 
 ******************************************
 %mem=15gb
 %nproc=8
 Will use up to    8 processors via shared memory.
 ------------------------------------------------------------
 #b3lyp/gen pseudo=read opt freq=noraman scrf=(solvent=water)
 ------------------------------------------------------------
 1/14=-1,18=20,19=15,26=3,38=1/1,3;
 2/9=110,12=2,17=6,18=5,40=1/2;
 3/5=7,11=2,16=1,17=8,25=1,30=1,70=2201,71=1,72=1,74=-5/1,2,3;
 4//1;
 5/5=2,38=5,53=1/2;
 6/7=2,8=2,9=2,10=2,28=1/1;
 7//1,2,3,16;
 1/14=-1,18=20,19=15,26=3/3(2);
 2/9=110/2;
 99//99;
 2/9=110/2;
 3/5=7,6=1,11=2,16=1,17=8,25=1,30=1,70=2205,71=1,72=1,74=-5,82=7/1,2,3;
 4/5=5,16=3,69=1/1;
 5/5=2,38=5,53=1/2;
 7//1,2,3,16;
 1/14=-1,18=20,19=15,26=3/3(-5);
 2/9=110/2;
 6/7=2,8=2,9=2,10=2,19=2,28=1/1;
 99/9=1/99;
 ------------
 Estrutura 57
 ------------
 Symbolic Z-matrix:
 Charge = -2 Multiplicity = 1
 Pt                   -0.31955   0.33835   0. 
 N                    -0.31955  -1.65165   0. 
 O                     0.95213  -2.10499   0.1641 
 O                    -0.81328  -2.10499  -1.18335 
 N                    -0.31955   0.33835  -1.99 
 O                     0.64815  -0.50287  -2.44333 
 O                    -1.53191  -0.0791   -2.44333 
 Cl                   -2.59955   0.33835   0. 
 Cl                   -0.31955   0.33835   1.99 
 N                     1.67045   0.33835   0. 
 O                     2.12378   1.35457  -0.7819 
 O                     2.12378   0.50738   1.27103 
 Br                   -0.31955   2.76835   0. 
 

 GradGradGradGradGradGradGradGradGradGradGradGradGradGradGradGradGradGrad
 Berny optimization.
 Initialization pass.
                           ----------------------------
                           !    Initial Parameters    !
                           ! (Angstroms and Degrees)  !
 --------------------------                            --------------------------
 ! Name  Definition              Value          Derivative Info.                !
 --------------------------------------------------------------------------------
 ! R1    R(1,2)                  1.99           estimate D2E/DX2                !
 ! R2    R(1,5)                  1.99           estimate D2E/DX2                !
 ! R3    R(1,8)                  2.28           estimate D2E/DX2                !
 ! R4    R(1,9)                  1.99           estimate D2E/DX2                !
 ! R5    R(1,10)                 1.99           estimate D2E/DX2                !
 ! R6    R(1,13)                 2.43           estimate D2E/DX2                !
 ! R7    R(2,3)                  1.36           estimate D2E/DX2                !
 ! R8    R(2,4)                  1.36           estimate D2E/DX2                !
 ! R9    R(5,6)                  1.36           estimate D2E/DX2                !
 ! R10   R(5,7)                  1.36           estimate D2E/DX2                !
 ! R11   R(10,11)                1.36           estimate D2E/DX2                !
 ! R12   R(10,12)                1.36           estimate D2E/DX2                !
 ! A1    A(2,1,5)               90.0            estimate D2E/DX2                !
 ! A2    A(2,1,8)               90.0            estimate D2E/DX2                !
 ! A3    A(2,1,9)               90.0            estimate D2E/DX2                !
 ! A4    A(2,1,10)              90.0            estimate D2E/DX2                !
 ! A5    A(5,1,8)               90.0            estimate D2E/DX2                !
 ! A6    A(5,1,10)              90.0            estimate D2E/DX2                !
 ! A7    A(5,1,13)              90.0            estimate D2E/DX2                !
 ! A8    A(8,1,9)               90.0            estimate D2E/DX2                !
 ! A9    A(8,1,13)              90.0            estimate D2E/DX2                !
 ! A10   A(9,1,10)              90.0            estimate D2E/DX2                !
 ! A11   A(9,1,13)              90.0            estimate D2E/DX2                !
 ! A12   A(10,1,13)             90.0            estimate D2E/DX2                !
 ! A13   A(1,2,3)              109.4712         estimate D2E/DX2                !
 ! A14   A(1,2,4)              109.4712         estimate D2E/DX2                !
 ! A15   A(3,2,4)              109.4713         estimate D2E/DX2                !
 ! A16   A(1,5,6)              109.4712         estimate D2E/DX2                !
 ! A17   A(1,5,7)              109.4712         estimate D2E/DX2                !
 ! A18   A(6,5,7)              109.4713         estimate D2E/DX2                !
 ! A19   A(1,10,11)            109.4712         estimate D2E/DX2                !
 ! A20   A(1,10,12)            109.4712         estimate D2E/DX2                !
 ! A21   A(11,10,12)           109.4713         estimate D2E/DX2                !
 ! A22   L(2,1,13,5,-1)        180.0            estimate D2E/DX2                !
 ! A23   L(5,1,9,2,-1)         180.0            estimate D2E/DX2                !
 ! A24   L(8,1,10,2,-1)        180.0            estimate D2E/DX2                !
 ! A25   L(2,1,13,5,-2)        180.0            estimate D2E/DX2                !
 ! A26   L(5,1,9,2,-2)         180.0            estimate D2E/DX2                !
 ! A27   L(8,1,10,2,-2)        180.0            estimate D2E/DX2                !
 ! D1    D(5,1,2,3)             97.3528         estimate D2E/DX2                !
 ! D2    D(5,1,2,4)            -22.6472         estimate D2E/DX2                !
 ! D3    D(8,1,2,3)           -172.6472         estimate D2E/DX2                !
 ! D4    D(8,1,2,4)             67.3528         estimate D2E/DX2                !
 ! D5    D(9,1,2,3)            -82.6472         estimate D2E/DX2                !
 ! D6    D(9,1,2,4)            157.3528         estimate D2E/DX2                !
 ! D7    D(10,1,2,3)             7.3528         estimate D2E/DX2                !
 ! D8    D(10,1,2,4)          -112.6472         estimate D2E/DX2                !
 ! D9    D(2,1,5,6)            -48.9998         estimate D2E/DX2                !
 ! D10   D(2,1,5,7)             71.0002         estimate D2E/DX2                !
 ! D11   D(8,1,5,6)           -138.9998         estimate D2E/DX2                !
 ! D12   D(8,1,5,7)            -18.9998         estimate D2E/DX2                !
 ! D13   D(10,1,5,6)            41.0002         estimate D2E/DX2                !
 ! D14   D(10,1,5,7)           161.0002         estimate D2E/DX2                !
 ! D15   D(13,1,5,6)           131.0002         estimate D2E/DX2                !
 ! D16   D(13,1,5,7)          -108.9998         estimate D2E/DX2                !
 ! D17   D(2,1,10,11)          142.4248         estimate D2E/DX2                !
 ! D18   D(2,1,10,12)          -97.5752         estimate D2E/DX2                !
 ! D19   D(5,1,10,11)           52.4248         estimate D2E/DX2                !
 ! D20   D(5,1,10,12)          172.4248         estimate D2E/DX2                !
 ! D21   D(9,1,10,11)         -127.5752         estimate D2E/DX2                !
 ! D22   D(9,1,10,12)           -7.5752         estimate D2E/DX2                !
 ! D23   D(13,1,10,11)         -37.5752         estimate D2E/DX2                !
 ! D24   D(13,1,10,12)          82.4248         estimate D2E/DX2                !
 --------------------------------------------------------------------------------
 Trust Radius=3.00D-01 FncErr=1.00D-07 GrdErr=1.00D-06
 Number of steps in this run=     73 maximum allowed number of steps=    100.
 GradGradGradGradGradGradGradGradGradGradGradGradGradGradGradGradGradGrad

                          Input orientation:                          
 ---------------------------------------------------------------------
 Center     Atomic      Atomic             Coordinates (Angstroms)
 Number     Number       Type             X           Y           Z
 ---------------------------------------------------------------------
      1         78           0       -0.319549    0.338346    0.000000
      2          7           0       -0.319549   -1.651654    0.000000
      3          8           0        0.952128   -2.104987    0.164097
      4          8           0       -0.813275   -2.104987   -1.183353
      5          7           0       -0.319549    0.338346   -1.990000
      6          8           0        0.648153   -0.502869   -2.443333
      7          8           0       -1.531913   -0.079100   -2.443333
      8         17           0       -2.599549    0.338346    0.000000
      9         17           0       -0.319549    0.338346    1.990000
     10          7           0        1.670451    0.338346    0.000000
     11          8           0        2.123784    1.354574   -0.781901
     12          8           0        2.123784    0.507377    1.271030
     13         35           0       -0.319549    2.768346    0.000000
 ---------------------------------------------------------------------
                    Distance matrix (angstroms):
                    1          2          3          4          5
     1  Pt   0.000000
     2  N    1.990000   0.000000
     3  O    2.759341   1.360000   0.000000
     4  O    2.759341   1.360000   2.220871   0.000000
     5  N    1.990000   2.814285   3.496737   2.619985   0.000000
     6  O    2.759341   2.868105   3.075366   2.508008   1.360000
     7  O    2.759341   3.148433   4.131993   2.491628   1.360000
     8  Cl   2.280000   3.026301   4.314071   3.249765   3.026301
     9  Cl   1.990000   2.814285   3.304687   4.035320   3.980000
    10  N    1.990000   2.814285   2.552017   3.679551   2.814285
    11  O    2.759341   3.952044   3.773096   4.555880   2.908969
    12  O    2.759341   3.499544   3.069614   4.634087   4.078329
    13  Br   2.430000   4.420000   5.039193   5.039193   3.140860
                    6          7          8          9         10
     6  O    0.000000
     7  O    2.220871   0.000000
     8  Cl   4.150311   2.698885   0.000000
     9  Cl   4.615033   4.615033   3.026301   0.000000
    10  N    2.778959   4.049602   4.270000   2.814285   0.000000
    11  O    2.896194   4.263790   4.894279   3.832236   1.360000
    12  O    4.122448   5.244480   4.894279   2.552521   1.360000
    13  Br   4.196090   3.943051   3.332161   3.140860   3.140860
                   11         12         13
    11  O    0.000000
    12  O    2.220871   0.000000
    13  Br   2.929163   3.563337   0.000000
 Stoichiometry    BrCl2N3O6Pt(2-)
 Framework group  C1[X(BrCl2N3O6Pt)]
 Deg. of freedom    33
 Full point group                 C1      NOp   1
 Largest Abelian subgroup         C1      NOp   1
 Largest concise Abelian subgroup C1      NOp   1
                         Standard orientation:                         
 ---------------------------------------------------------------------
 Center     Atomic      Atomic             Coordinates (Angstroms)
 Number     Number       Type             X           Y           Z
 ---------------------------------------------------------------------
      1         78           0       -0.111494   -0.011805   -0.166568
      2          7           0       -1.994791    0.384249   -0.672961
      3          8           0       -2.261741    1.696455   -0.435364
      4          8           0       -2.834986   -0.390081    0.064660
      5          7           0       -0.730446   -0.705188    1.593039
      6          8           0       -1.583062    0.190653    2.158827
      7          8           0       -1.372368   -1.890542    1.412835
      8         17           0       -0.310573   -2.100196   -1.059536
      9         17           0        0.507458    0.681577   -1.926176
     10          7           0        0.062262    1.810957    0.612820
     11          8           0        0.820388    1.751499    1.740344
     12          8           0        0.657143    2.635420   -0.290494
     13         35           0        2.188210   -0.495430    0.451791
 ---------------------------------------------------------------------
 Rotational constants (GHZ):      0.5568531      0.4391003      0.3994878
 General basis read from cards:  (5D, 7F)
 ======================================================================================================
                                       Pseudopotential Parameters
 ======================================================================================================
  Center     Atomic      Valence      Angular      Power
  Number     Number     Electrons     Momentum     of R      Exponent        Coefficient   SO-Coeffient
 ======================================================================================================
    1         78           18
                                      G and up 
                                                     1      728.9394056       -0.16192680    0.00000000
                                                     2      320.6567800    -1320.28738520    0.00000000
                                                     2       52.8680174     -298.31781350    0.00000000
                                                     2       12.0280128      -87.58370650    0.00000000
                                                     2        3.5238913       -8.14932740    0.00000000
                                      S - G
                                                     0      409.4437358        2.73342180    0.00000000
                                                     1      274.5419231       59.70243290    0.00000000
                                                     2      127.5658570      891.45895500    0.00000000
                                                     2       32.9036631      368.44676560    0.00000000
                                                     2        5.0593880      238.02630900    0.00000000
                                                     2        4.1506556     -107.05564540    0.00000000
                                      P - G
                                                     0      466.1728892        1.88785680    0.00000000
                                                     1      120.7888259       76.01386290    0.00000000
                                                     2       36.4118791      343.55111160    0.00000000
                                                     2        5.6985408      119.49117860    0.00000000
                                      D - G
                                                     0      249.5650763        2.93436780    0.00000000
                                                     1      126.6678585       59.33065710    0.00000000
                                                     2       63.1430586      452.44451940    0.00000000
                                                     2       17.9059470      210.47694790    0.00000000
                                                     2        4.2239373       58.62541120    0.00000000
                                      F - G
                                                     0      121.8158799        3.95342530    0.00000000
                                                     1       60.8757030       53.85551820    0.00000000
                                                     2       31.4767147      247.43051330    0.00000000
                                                     2        9.8811751      127.81879760    0.00000000
                                                     2        2.7319874       15.37720460    0.00000000
    2          7
                                   No pseudopotential on this center.
    3          8
                                   No pseudopotential on this center.
    4          8
                                   No pseudopotential on this center.
    5          7
                                   No pseudopotential on this center.
    6          8
                                   No pseudopotential on this center.
    7          8
                                   No pseudopotential on this center.
    8         17
                                   No pseudopotential on this center.
    9         17
                                   No pseudopotential on this center.
   10          7
                                   No pseudopotential on this center.
   11          8
                                   No pseudopotential on this center.
   12          8
                                   No pseudopotential on this center.
   13         35
                                   No pseudopotential on this center.
 ======================================================================================================
 There are   232 symmetry adapted cartesian basis functions of A   symmetry.
 There are   216 symmetry adapted basis functions of A   symmetry.
   216 basis functions,   422 primitive gaussians,   232 cartesian basis functions
    79 alpha electrons       79 beta electrons
       nuclear repulsion energy      1913.8668167106 Hartrees.
 NAtoms=   13 NActive=   13 NUniq=   13 SFac= 1.00D+00 NAtFMM=   60 NAOKFM=F Big=F
 Integral buffers will be    131072 words long.
 Raffenetti 2 integral format.
 Two-electron integral symmetry is turned on.
 ------------------------------------------------------------------------------
 Polarizable Continuum Model (PCM)
 =================================
 Model                : PCM (using non-symmetric T matrix).
 Atomic radii         : UFF (Universal Force Field).
 Polarization charges : Total charges.
 Charge compensation  : None.
 Solution method      : On-the-fly selection.
 Cavity type          : Scaled VdW (van der Waals Surface) (Alpha=1.100).
 Cavity algorithm     : GePol (No added spheres)
                        Default sphere list used, NSphG=   13.
                        Lebedev-Laikov grids with approx.  5.0 points / Ang**2.
                        Smoothing algorithm: Karplus/York (Gamma=1.0000).
                        Polarization charges: spherical gaussians, with
                                              point-specific exponents (IZeta= 3).
                        Self-potential: point-specific (ISelfS= 7).
                        Self-field    : sphere-specific E.n sum rule (ISelfD= 2).
 1st derivatives      : Analytical E(r).r(x)/FMM algorithm (CHGder, D1EAlg=3).
                        Cavity 1st derivative terms included.
 Solvent              : Water, Eps=  78.355300 Eps(inf)=   1.777849
 ------------------------------------------------------------------------------
 Spheres list:
 ISph  on   Nord     Re0    Alpha      Xe            Ye            Ze
    1  Pt      1    1.3770  1.100     -0.111494     -0.011805     -0.166568
    2   N      2    1.8300  1.100     -1.994791      0.384249     -0.672961
    3   O      3    1.7500  1.100     -2.261741      1.696455     -0.435364
    4   O      4    1.7500  1.100     -2.834986     -0.390081      0.064660
    5   N      5    1.8300  1.100     -0.730446     -0.705188      1.593039
    6   O      6    1.7500  1.100     -1.583062      0.190653      2.158827
    7   O      7    1.7500  1.100     -1.372368     -1.890542      1.412835
    8  Cl      8    1.9735  1.100     -0.310573     -2.100196     -1.059536
    9  Cl      9    1.9735  1.100      0.507458      0.681577     -1.926176
   10   N     10    1.8300  1.100      0.062262      1.810957      0.612820
   11   O     11    1.7500  1.100      0.820388      1.751499      1.740344
   12   O     12    1.7500  1.100      0.657143      2.635420     -0.290494
   13  Br     13    2.0945  1.100      2.188210     -0.495430      0.451791
 ------------------------------------------------------------------------------
 One-electron integrals computed using PRISM.
   1 Symmetry operations used in ECPInt.
 ECPInt:  NShTT=    4095 NPrTT=   18359 LenC2=    3873 LenP2D=   12330.
 LDataN:  DoStor=T MaxTD1= 6 Len=  172
 NBasis=   216 RedAO= T EigKep=  2.80D-03  NBF=   216
 NBsUse=   216 1.00D-06 EigRej= -1.00D+00 NBFU=   216
 Defaulting to unpruned grid for atomic number  78.
 ExpMin= 2.90D-02 ExpMax= 1.13D+05 ExpMxC= 1.70D+04 IAcc=3 IRadAn=         5 AccDes= 0.00D+00
 Harris functional with IExCor=  402 and IRadAn=       5 diagonalized for initial guess.
 HarFok:  IExCor=  402 AccDes= 0.00D+00 IRadAn=         5 IDoV= 1 UseB2=F ITyADJ=14
 ICtDFT=  3500011 ScaDFX=  1.000000  1.000000  1.000000  1.000000
 Defaulting to unpruned grid for atomic number  78.
 Defaulting to unpruned grid for atomic number  78.
 Defaulting to unpruned grid for atomic number  78.
 Defaulting to unpruned grid for atomic number  78.
 Defaulting to unpruned grid for atomic number  78.
 Defaulting to unpruned grid for atomic number  78.
 Defaulting to unpruned grid for atomic number  78.
 Defaulting to unpruned grid for atomic number  78.
 FoFCou: FMM=F IPFlag=           0 FMFlag=      100000 FMFlg1=           0
         NFxFlg=           0 DoJE=T BraDBF=F KetDBF=T FulRan=T
         wScrn=  0.000000 ICntrl=     500 IOpCl=  0 I1Cent=   200000004 NGrid=           0
         NMat0=    1 NMatS0=      1 NMatT0=    0 NMatD0=    1 NMtDS0=    0 NMtDT0=    0
 Petite list used in FoFCou.
 Keep R1 ints in memory in canonical form, NReq=281142920.
 Requested convergence on RMS density matrix=1.00D-08 within 128 cycles.
 Requested convergence on MAX density matrix=1.00D-06.
 Requested convergence on             energy=1.00D-06.
 No special actions if energy rises.
 Defaulting to unpruned grid for atomic number  78.
 Defaulting to unpruned grid for atomic number  78.
 Defaulting to unpruned grid for atomic number  78.
 Defaulting to unpruned grid for atomic number  78.
 Defaulting to unpruned grid for atomic number  78.
 Defaulting to unpruned grid for atomic number  78.
 Defaulting to unpruned grid for atomic number  78.
 Defaulting to unpruned grid for atomic number  78.
 Inv3:  Mode=1 IEnd=     7188912.
 Iteration    1 A*A^-1 deviation from unit magnitude is 5.77D-15 for   1179.
 Iteration    1 A*A^-1 deviation from orthogonality  is 5.63D-15 for   1280   1058.
 Iteration    1 A^-1*A deviation from unit magnitude is 5.44D-15 for    977.
 Iteration    1 A^-1*A deviation from orthogonality  is 3.27D-12 for   1090   1047.
 EnCoef did   100 forward-backward iterations
 EnCoef did   100 forward-backward iterations
 EnCoef did   100 forward-backward iterations
 EnCoef did   100 forward-backward iterations
 EnCoef did     4 forward-backward iterations
 EnCoef did     3 forward-backward iterations
 EnCoef did     3 forward-backward iterations
 EnCoef did     3 forward-backward iterations
 EnCoef did     1 forward-backward iterations
 Error on total polarization charges =  0.01048
 SCF Done:  E(RB3LYP) =  -4228.11492214     A.U. after   26 cycles
            NFock= 26  Conv=0.37D-08     -V/T= 2.0218

 **********************************************************************

            Population analysis using the SCF density.

 **********************************************************************

 Orbital symmetries:
       Occupied  (A) (A) (A) (A) (A) (A) (A) (A) (A) (A) (A) (A)
                 (A) (A) (A) (A) (A) (A) (A) (A) (A) (A) (A) (A)
                 (A) (A) (A) (A) (A) (A) (A) (A) (A) (A) (A) (A)
                 (A) (A) (A) (A) (A) (A) (A) (A) (A) (A) (A) (A)
                 (A) (A) (A) (A) (A) (A) (A) (A) (A) (A) (A) (A)
                 (A) (A) (A) (A) (A) (A) (A) (A) (A) (A) (A) (A)
                 (A) (A) (A) (A) (A) (A) (A)
       Virtual   (A) (A) (A) (A) (A) (A) (A) (A) (A) (A) (A) (A)
                 (A) (A) (A) (A) (A) (A) (A) (A) (A) (A) (A) (A)
                 (A) (A) (A) (A) (A) (A) (A) (A) (A) (A) (A) (A)
                 (A) (A) (A) (A) (A) (A) (A) (A) (A) (A) (A) (A)
                 (A) (A) (A) (A) (A) (A) (A) (A) (A) (A) (A) (A)
                 (A) (A) (A) (A) (A) (A) (A) (A) (A) (A) (A) (A)
                 (A) (A) (A) (A) (A) (A) (A) (A) (A) (A) (A) (A)
                 (A) (A) (A) (A) (A) (A) (A) (A) (A) (A) (A) (A)
                 (A) (A) (A) (A) (A) (A) (A) (A) (A) (A) (A) (A)
                 (A) (A) (A) (A) (A) (A) (A) (A) (A) (A) (A) (A)
                 (A) (A) (A) (A) (A) (A) (A) (A) (A) (A) (A) (A)
                 (A) (A) (A) (A) (A)
 The electronic state is 1-A.
 Alpha  occ. eigenvalues -- -482.75535-101.45328-101.44922 -62.43699 -56.26898
 Alpha  occ. eigenvalues --  -56.26591 -56.26589 -19.14762 -19.14484 -19.14157
 Alpha  occ. eigenvalues --  -19.13821 -19.13261 -19.13105 -14.49598 -14.49043
 Alpha  occ. eigenvalues --  -14.47463  -9.41403  -9.40349  -8.65473  -7.18251
 Alpha  occ. eigenvalues --   -7.17254  -7.17195  -7.17179  -7.16305  -7.16255
 Alpha  occ. eigenvalues --   -6.48700  -6.47588  -6.47582  -4.04632  -2.60147
 Alpha  occ. eigenvalues --   -2.59834  -2.59829  -2.58955  -2.58955  -2.26941
 Alpha  occ. eigenvalues --   -2.25957  -2.25821  -1.09776  -1.08730  -1.07666
 Alpha  occ. eigenvalues --   -0.93349  -0.92875  -0.91845  -0.81444  -0.76645
 Alpha  occ. eigenvalues --   -0.73578  -0.65537  -0.65031  -0.63978  -0.51014
 Alpha  occ. eigenvalues --   -0.50174  -0.49520  -0.48399  -0.47617  -0.47358
 Alpha  occ. eigenvalues --   -0.45740  -0.45015  -0.42960  -0.41913  -0.40005
 Alpha  occ. eigenvalues --   -0.39416  -0.38053  -0.36549  -0.34725  -0.29303
 Alpha  occ. eigenvalues --   -0.28750  -0.27755  -0.27510  -0.26865  -0.26515
 Alpha  occ. eigenvalues --   -0.26397  -0.26121  -0.25483  -0.25194  -0.25013
 Alpha  occ. eigenvalues --   -0.24322  -0.23747  -0.23439  -0.22062
 Alpha virt. eigenvalues --   -0.13381  -0.12359  -0.10692  -0.03428  -0.00759
 Alpha virt. eigenvalues --    0.05732   0.05950   0.06756   0.17888   0.19090
 Alpha virt. eigenvalues --    0.19797   0.19861   0.20688   0.21277   0.21675
 Alpha virt. eigenvalues --    0.30248   0.30455   0.31202   0.39662   0.42743
 Alpha virt. eigenvalues --    0.44347   0.46312   0.47710   0.49154   0.57310
 Alpha virt. eigenvalues --    0.58111   0.61089   0.62359   0.62883   0.64895
 Alpha virt. eigenvalues --    0.67989   0.68544   0.70212   0.71523   0.72686
 Alpha virt. eigenvalues --    0.74030   0.74652   0.75979   0.77965   0.78601
 Alpha virt. eigenvalues --    0.79532   0.79676   0.81555   0.82420   0.83493
 Alpha virt. eigenvalues --    0.87366   0.87441   0.90126   0.91574   0.92104
 Alpha virt. eigenvalues --    0.92492   0.94414   0.94829   0.95722   0.97067
 Alpha virt. eigenvalues --    0.98711   1.00149   1.02368   1.03736   1.05119
 Alpha virt. eigenvalues --    1.07237   1.07491   1.08289   1.09195   1.12329
 Alpha virt. eigenvalues --    1.13722   1.14646   1.16163   1.18718   1.19586
 Alpha virt. eigenvalues --    1.20517   1.23705   1.24136   1.24646   1.26730
 Alpha virt. eigenvalues --    1.28637   1.30787   1.36445   1.38494   1.41254
 Alpha virt. eigenvalues --    1.44512   1.45174   1.52063   1.52608   1.56093
 Alpha virt. eigenvalues --    1.61433   1.89918   1.91787   1.94634   1.98671
 Alpha virt. eigenvalues --    2.02587   2.03459   2.07302   2.15002   2.20748
 Alpha virt. eigenvalues --    2.28523   2.30856   2.34067   2.34397   2.36190
 Alpha virt. eigenvalues --    2.37090   2.65248   2.65722   2.66361   2.67080
 Alpha virt. eigenvalues --    2.67304   2.67789   2.68240   2.69491   2.70210
 Alpha virt. eigenvalues --    2.70525   2.71442   2.72576   2.76330   2.76748
 Alpha virt. eigenvalues --    2.78485   2.96971   2.99155   3.01098   3.01937
 Alpha virt. eigenvalues --    3.02342   3.03110   3.22498   3.24020   3.24226
 Alpha virt. eigenvalues --    3.45401   3.49191   3.49984   3.51168   3.53097
 Alpha virt. eigenvalues --    3.60571   3.62155   3.69615   3.71434   3.76440
 Alpha virt. eigenvalues --    3.78501   8.01910
          Condensed to atoms (all electrons):
               1          2          3          4          5          6
     1  Pt  17.499449  -0.049798   0.013371   0.005075   0.042450  -0.001311
     2  N   -0.049798   6.817214   0.162541   0.173809  -0.016125  -0.009294
     3  O    0.013371   0.162541   8.213748  -0.092586   0.000109   0.001533
     4  O    0.005075   0.173809  -0.092586   8.179006  -0.023599   0.003342
     5  N    0.042450  -0.016125   0.000109  -0.023599   6.653174   0.170246
     6  O   -0.001311  -0.009294   0.001533   0.003342   0.170246   8.230141
     7  O   -0.012384  -0.002456  -0.000023  -0.001755   0.184975  -0.094464
     8  Cl   0.250349  -0.015022   0.000134  -0.000547   0.003386   0.000111
     9  Cl  -0.024976  -0.048801  -0.001155   0.000729  -0.008363   0.000196
    10  N   -0.025143  -0.016852  -0.019681   0.000033  -0.022633  -0.005659
    11  O   -0.015273   0.000379   0.000212   0.000003  -0.001467  -0.000638
    12  O    0.006992  -0.000067   0.000355  -0.000001   0.000274   0.000127
    13  Br   0.228928  -0.004572   0.000100   0.000103  -0.008987   0.000335
               7          8          9         10         11         12
     1  Pt  -0.012384   0.250349  -0.024976  -0.025143  -0.015273   0.006992
     2  N   -0.002456  -0.015022  -0.048801  -0.016852   0.000379  -0.000067
     3  O   -0.000023   0.000134  -0.001155  -0.019681   0.000212   0.000355
     4  O   -0.001755  -0.000547   0.000729   0.000033   0.000003  -0.000001
     5  N    0.184975   0.003386  -0.008363  -0.022633  -0.001467   0.000274
     6  O   -0.094464   0.000111   0.000196  -0.005659  -0.000638   0.000127
     7  O    8.215153  -0.027330   0.000161   0.000260   0.000065   0.000000
     8  Cl  -0.027330  16.976923  -0.023263  -0.003486   0.000049   0.000045
     9  Cl   0.000161  -0.023263  17.555030  -0.041910   0.000499  -0.051349
    10  N    0.000260  -0.003486  -0.041910   6.762072   0.183397   0.174982
    11  O    0.000065   0.000049   0.000499   0.183397   8.209055  -0.091345
    12  O    0.000000   0.000045  -0.051349   0.174982  -0.091345   8.234731
    13  Br   0.000047  -0.019919  -0.025678  -0.020920  -0.010255   0.000942
              13
     1  Pt   0.228928
     2  N   -0.004572
     3  O    0.000100
     4  O    0.000103
     5  N   -0.008987
     6  O    0.000335
     7  O    0.000047
     8  Cl  -0.019919
     9  Cl  -0.025678
    10  N   -0.020920
    11  O   -0.010255
    12  O    0.000942
    13  Br  34.911199
 Mulliken charges:
               1
     1  Pt   0.082272
     2  N    0.009045
     3  O   -0.278657
     4  O   -0.243612
     5  N    0.026561
     6  O   -0.294665
     7  O   -0.262249
     8  Cl  -0.141428
     9  Cl  -0.331119
    10  N    0.035541
    11  O   -0.274680
    12  O   -0.275687
    13  Br  -0.051323
 Sum of Mulliken charges =  -2.00000
 Mulliken charges with hydrogens summed into heavy atoms:
               1
     1  Pt   0.082272
     2  N    0.009045
     3  O   -0.278657
     4  O   -0.243612
     5  N    0.026561
     6  O   -0.294665
     7  O   -0.262249
     8  Cl  -0.141428
     9  Cl  -0.331119
    10  N    0.035541
    11  O   -0.274680
    12  O   -0.275687
    13  Br  -0.051323
 Electronic spatial extent (au):  <R**2>=           3185.3774
 Charge=             -2.0000 electrons
 Dipole moment (field-independent basis, Debye):
    X=              4.1423    Y=             -1.7773    Z=             -2.4580  Tot=              5.1341
 Quadrupole moment (field-independent basis, Debye-Ang):
   XX=           -150.3735   YY=           -151.1911   ZZ=           -140.9312
   XY=             -4.2444   XZ=              5.6300   YZ=             -0.5907
 Traceless Quadrupole moment (field-independent basis, Debye-Ang):
   XX=             -2.8749   YY=             -3.6925   ZZ=              6.5674
   XY=             -4.2444   XZ=              5.6300   YZ=             -0.5907
 Octapole moment (field-independent basis, Debye-Ang**2):
  XXX=             77.1108  YYY=            -24.9290  ZZZ=            -15.2895  XYY=             16.8188
  XXY=             -7.1329  XXZ=            -16.3059  XZZ=             18.3537  YZZ=             -7.4075
  YYZ=             -1.3170  XYZ=             -9.2319
 Hexadecapole moment (field-independent basis, Debye-Ang**3):
 XXXX=          -1622.6957 YYYY=          -1365.5428 ZZZZ=          -1048.5439 XXXY=            -13.7813
 XXXZ=             47.6506 YYYX=            -49.0431 YYYZ=              6.3430 ZZZX=             47.2124
 ZZZY=            -26.3412 XXYY=           -501.0833 XXZZ=           -438.2222 YYZZ=           -401.8050
 XXYZ=              4.6660 YYXZ=              4.2796 ZZXY=            -19.3036
 N-N= 1.913866816711D+03 E-N=-1.391190381737D+04  KE= 4.138052748671D+03
   1 Symmetry operations used in ECPInt.
 ECPInt:  NShTT=    4095 NPrTT=   18359 LenC2=    3873 LenP2D=   12330.
 LDataN:  DoStor=T MaxTD1= 7 Len=  274
 D1PCM: PCM CHGder 1st derivatives, ID1Alg=3 FixD1E=F DoIter=F DoCFld=F I1PDM=0.
 Calling FoFJK, ICntrl=      2127 FMM=F ISym2X=0 I1Cent= 0 IOpClX= 0 NMat=1 NMatS=1 NMatT=0.
 Defaulting to unpruned grid for atomic number  78.
 Defaulting to unpruned grid for atomic number  78.
 Defaulting to unpruned grid for atomic number  78.
 Defaulting to unpruned grid for atomic number  78.
 Defaulting to unpruned grid for atomic number  78.
 Defaulting to unpruned grid for atomic number  78.
 Defaulting to unpruned grid for atomic number  78.
 Defaulting to unpruned grid for atomic number  78.
 ***** Axes restored to original set *****
 -------------------------------------------------------------------
 Center     Atomic                   Forces (Hartrees/Bohr)
 Number     Number              X              Y              Z
 -------------------------------------------------------------------
      1       78          -0.016535745    0.030934379   -0.142385355
      2        7           0.099388144   -0.113602864   -0.144890231
      3        8          -0.094850013    0.020717819    0.023570963
      4        8           0.005166007    0.013783913    0.107388660
      5        7          -0.040992385   -0.162212024   -0.116796552
      6        8          -0.046422306    0.081273488    0.019844355
      7        8           0.086435716    0.065953853    0.009475368
      8       17          -0.048121760    0.005291313    0.013091413
      9       17          -0.020471180   -0.006635368    0.229597451
     10        7           0.106984708    0.167612602    0.071780501
     11        8          -0.022975835   -0.095144463    0.027897604
     12        8          -0.006276406   -0.045390883   -0.096114142
     13       35          -0.001328945    0.037418236   -0.002460035
 -------------------------------------------------------------------
 Cartesian Forces:  Max     0.229597451 RMS     0.083696681

 GradGradGradGradGradGradGradGradGradGradGradGradGradGradGradGradGradGrad
 Berny optimization.
 FormGI is forming the generalized inverse of G from B-inverse, IUseBI=4.
 Internal  Forces:  Max     0.229592793 RMS     0.050289556
 Search for a local minimum.
 Step number   1 out of a maximum of   73
 All quantities printed in internal units (Hartrees-Bohrs-Radians)
 Mixed Optimization -- RFO/linear search
 Second derivative matrix not updated -- first step.
 ITU=  0
     Eigenvalues ---    0.00230   0.00230   0.00230   0.04734   0.04734
     Eigenvalues ---    0.04734   0.08487   0.08487   0.08487   0.08487
     Eigenvalues ---    0.08931   0.08931   0.16743   0.16743   0.16743
     Eigenvalues ---    0.19509   0.20378   0.20378   0.20378   0.22001
     Eigenvalues ---    0.25000   0.25000   0.25000   0.25000   0.25000
     Eigenvalues ---    0.25000   0.52948   0.52948   0.52948   0.52948
     Eigenvalues ---    0.52948   0.52948   0.57823
 RFO step:  Lambda=-2.58550261D-01 EMin= 2.30000000D-03
 Linear search not attempted -- first point.
 Maximum step size (   0.300) exceeded in Quadratic search.
    -- Step size scaled by   0.503
 Iteration  1 RMS(Cart)=  0.08185886 RMS(Int)=  0.00263095
 Iteration  2 RMS(Cart)=  0.00307847 RMS(Int)=  0.00096145
 Iteration  3 RMS(Cart)=  0.00001045 RMS(Int)=  0.00096143
 Iteration  4 RMS(Cart)=  0.00000003 RMS(Int)=  0.00096143
 Variable       Old X    -DE/DX   Delta X   Delta X   Delta X     New X
                                 (Linear)    (Quad)   (Total)
    R1        3.76056   0.07910   0.00000   0.08607   0.08607   3.84662
    R2        3.76056   0.08749   0.00000   0.09519   0.09519   3.85574
    R3        4.30858   0.04813   0.00000   0.05059   0.05059   4.35916
    R4        3.76056   0.22959   0.00000   0.13802   0.13802   3.89857
    R5        3.76056   0.07770   0.00000   0.08454   0.08454   3.84510
    R6        4.59203   0.03742   0.00000   0.04149   0.04149   4.63353
    R7        2.57003  -0.09274   0.00000  -0.05920  -0.05920   2.51082
    R8        2.57003  -0.09991   0.00000  -0.06378  -0.06378   2.50625
    R9        2.57003  -0.08990   0.00000  -0.05739  -0.05739   2.51264
   R10        2.57003  -0.10046   0.00000  -0.06413  -0.06413   2.50590
   R11        2.57003  -0.09479   0.00000  -0.06051  -0.06051   2.50952
   R12        2.57003  -0.09755   0.00000  -0.06227  -0.06227   2.50776
    A1        1.57080   0.01102   0.00000   0.01371   0.01376   1.58456
    A2        1.57080   0.00325   0.00000   0.00481   0.00470   1.57550
    A3        1.57080  -0.01007   0.00000  -0.01234  -0.01241   1.55838
    A4        1.57080   0.00517   0.00000   0.00752   0.00763   1.57843
    A5        1.57080   0.01696   0.00000   0.01915   0.01910   1.58989
    A6        1.57080  -0.01819   0.00000  -0.02096  -0.02102   1.54978
    A7        1.57080  -0.00700   0.00000  -0.00782  -0.00785   1.56294
    A8        1.57080  -0.02223   0.00000  -0.02677  -0.02673   1.54407
    A9        1.57080  -0.00482   0.00000  -0.00711  -0.00708   1.56372
   A10        1.57080   0.02346   0.00000   0.02858   0.02863   1.59943
   A11        1.57080   0.00605   0.00000   0.00644   0.00649   1.57728
   A12        1.57080  -0.00359   0.00000  -0.00522  -0.00525   1.56555
   A13        1.91063   0.02645   0.00000   0.03415   0.03237   1.94301
   A14        1.91063   0.05191   0.00000   0.05933   0.05759   1.96823
   A15        1.91063  -0.00264   0.00000   0.01335   0.01032   1.92095
   A16        1.91063   0.02367   0.00000   0.03101   0.02917   1.93981
   A17        1.91063   0.06158   0.00000   0.06851   0.06673   1.97736
   A18        1.91063  -0.00782   0.00000   0.00747   0.00435   1.91498
   A19        1.91063   0.01974   0.00000   0.02744   0.02549   1.93612
   A20        1.91063   0.06773   0.00000   0.07491   0.07304   1.98367
   A21        1.91063  -0.00750   0.00000   0.00841   0.00513   1.91577
   A22        3.14159   0.00402   0.00000   0.00590   0.00591   3.14750
   A23        3.14159   0.00095   0.00000   0.00137   0.00135   3.14294
   A24        3.14159   0.00842   0.00000   0.01233   0.01234   3.15393
   A25        3.14159  -0.00157   0.00000  -0.00230  -0.00226   3.13933
   A26        3.14159   0.00527   0.00000   0.00762   0.00762   3.14922
   A27        3.14159  -0.00123   0.00000  -0.00181  -0.00175   3.13984
    D1        1.69913   0.01459   0.00000   0.02807   0.02865   1.72778
    D2       -0.39527  -0.03016   0.00000  -0.04552  -0.04609  -0.44136
    D3       -3.01326   0.03155   0.00000   0.04722   0.04782  -2.96545
    D4        1.17553  -0.01320   0.00000  -0.02637  -0.02692   1.14860
    D5       -1.44247   0.00932   0.00000   0.02045   0.02103  -1.42144
    D6        2.74632  -0.03543   0.00000  -0.05315  -0.05371   2.69261
    D7        0.12833   0.03278   0.00000   0.04903   0.04957   0.17790
    D8       -1.96606  -0.01197   0.00000  -0.02457  -0.02517  -1.99124
    D9       -0.85521  -0.02118   0.00000  -0.03437  -0.03486  -0.89007
   D10        1.23919   0.02144   0.00000   0.03572   0.03641   1.27559
   D11       -2.42600  -0.02443   0.00000  -0.03918  -0.03983  -2.46584
   D12       -0.33161   0.01819   0.00000   0.03091   0.03144  -0.30017
   D13        0.71559  -0.01602   0.00000  -0.02685  -0.02752   0.68807
   D14        2.80998   0.02661   0.00000   0.04324   0.04375   2.85373
   D15        2.28638  -0.01961   0.00000  -0.03207  -0.03260   2.25378
   D16       -1.90241   0.02301   0.00000   0.03803   0.03867  -1.86374
   D17        2.48578  -0.01699   0.00000  -0.03059  -0.03128   2.45450
   D18       -1.70301   0.02738   0.00000   0.04238   0.04292  -1.66008
   D19        0.91499  -0.02802   0.00000  -0.04431  -0.04489   0.87010
   D20        3.00938   0.01636   0.00000   0.02867   0.02932   3.03870
   D21       -2.22661  -0.02707   0.00000  -0.04293  -0.04348  -2.27009
   D22       -0.13221   0.01731   0.00000   0.03004   0.03073  -0.10149
   D23       -0.65581  -0.02102   0.00000  -0.03649  -0.03714  -0.69295
   D24        1.43858   0.02336   0.00000   0.03648   0.03707   1.47565
         Item               Value     Threshold  Converged?
 Maximum Force            0.229593     0.000450     NO 
 RMS     Force            0.050290     0.000300     NO 
 Maximum Displacement     0.238486     0.001800     NO 
 RMS     Displacement     0.080459     0.001200     NO 
 Predicted change in Energy=-1.132637D-01
 GradGradGradGradGradGradGradGradGradGradGradGradGradGradGradGradGradGrad

                          Input orientation:                          
 ---------------------------------------------------------------------
 Center     Atomic      Atomic             Coordinates (Angstroms)
 Number     Number       Type             X           Y           Z
 ---------------------------------------------------------------------
      1         78           0       -0.339725    0.341335    0.011613
      2          7           0       -0.319707   -1.694080    0.022766
      3          8           0        0.905087   -2.164118    0.233269
      4          8           0       -0.823910   -2.218475   -1.086165
      5          7           0       -0.315904    0.358472   -2.028548
      6          8           0        0.661106   -0.408377   -2.503220
      7          8           0       -1.471385   -0.002978   -2.569534
      8         17           0       -2.646403    0.329594    0.028637
      9         17           0       -0.379563    0.326636    2.074212
     10          7           0        1.694619    0.376768   -0.007106
     11          8           0        2.145045    1.339390   -0.803351
     12          8           0        2.236111    0.501153    1.198038
     13         35           0       -0.369553    2.793109    0.012597
 ---------------------------------------------------------------------
                    Distance matrix (angstroms):
                    1          2          3          4          5
     1  Pt   0.000000
     2  N    2.035544   0.000000
     3  O    2.806418   1.328671   0.000000
     4  O    2.827043   1.326249   2.175612   0.000000
     5  N    2.040372   2.901874   3.601402   2.790486   0.000000
     6  O    2.808578   2.999271   3.260448   2.736744   1.329631
     7  O    2.839282   3.302455   4.263080   2.743726   1.326064
     8  Cl   2.306770   3.083635   4.344370   3.325194   3.108708
     9  Cl   2.063037   2.880158   3.353097   4.082036   4.103378
    10  N    2.034739   2.889086   2.671562   3.773942   2.851099
    11  O    2.798992   3.994923   3.858322   4.642529   2.918832
    12  O    2.840436   3.568266   3.131465   4.688036   4.116309
    13  Br   2.451956   4.487478   5.123232   5.150698   3.177517
                    6          7          8          9         10
     6  O    0.000000
     7  O    2.171696   0.000000
     8  Cl   4.230190   2.870847   0.000000
     9  Cl   4.751434   4.781747   3.053350   0.000000
    10  N    2.813394   4.090700   4.341425   2.938815   0.000000
    11  O    2.854176   4.242631   4.966876   3.959758   1.327979
    12  O    4.123978   5.309828   5.023532   2.764035   1.327048
    13  Br   4.200132   3.962265   3.354580   3.214630   3.178034
                   11         12         13
    11  O    0.000000
    12  O    2.171748   0.000000
    13  Br   3.016997   3.667127   0.000000
 Stoichiometry    BrCl2N3O6Pt(2-)
 Framework group  C1[X(BrCl2N3O6Pt)]
 Deg. of freedom    33
 Full point group                 C1      NOp   1
 Largest Abelian subgroup         C1      NOp   1
 Largest concise Abelian subgroup C1      NOp   1
                         Standard orientation:                         
 ---------------------------------------------------------------------
 Center     Atomic      Atomic             Coordinates (Angstroms)
 Number     Number       Type             X           Y           Z
 ---------------------------------------------------------------------
      1         78           0       -0.113302   -0.021878   -0.166890
      2          7           0       -2.060737    0.304506   -0.661269
      3          8           0       -2.392090    1.581374   -0.502589
      4          8           0       -2.898662   -0.470319    0.014354
      5          7           0       -0.666509   -0.713658    1.671186
      6          8           0       -1.486369    0.139394    2.277858
      7          8           0       -1.221428   -1.917432    1.633237
      8         17           0       -0.233588   -2.148526   -1.052378
      9         17           0        0.447730    0.662540   -2.030471
     10          7           0        0.015791    1.848654    0.623431
     11          8           0        0.738187    1.844072    1.737725
     12          8           0        0.498947    2.751263   -0.220912
     13         35           0        2.236247   -0.415288    0.413571
 ---------------------------------------------------------------------
 Rotational constants (GHZ):      0.5288674      0.4209772      0.3905287
 Basis read from rwf:  (5D, 7F)
 Pseudo-potential data read from rwf file.
 There are   232 symmetry adapted cartesian basis functions of A   symmetry.
 There are   216 symmetry adapted basis functions of A   symmetry.
   216 basis functions,   422 primitive gaussians,   232 cartesian basis functions
    79 alpha electrons       79 beta electrons
       nuclear repulsion energy      1880.4629267875 Hartrees.
 NAtoms=   13 NActive=   13 NUniq=   13 SFac= 1.00D+00 NAtFMM=   60 NAOKFM=F Big=F
 Integral buffers will be    131072 words long.
 Raffenetti 2 integral format.
 Two-electron integral symmetry is turned on.
 ------------------------------------------------------------------------------
 Polarizable Continuum Model (PCM)
 =================================
 Model                : PCM (using non-symmetric T matrix).
 Atomic radii         : UFF (Universal Force Field).
 Polarization charges : Total charges.
 Charge compensation  : None.
 Solution method      : On-the-fly selection.
 Cavity type          : Scaled VdW (van der Waals Surface) (Alpha=1.100).
 Cavity algorithm     : GePol (No added spheres)
                        Default sphere list used, NSphG=   13.
                        Lebedev-Laikov grids with approx.  5.0 points / Ang**2.
                        Smoothing algorithm: Karplus/York (Gamma=1.0000).
                        Polarization charges: spherical gaussians, with
                                              point-specific exponents (IZeta= 3).
                        Self-potential: point-specific (ISelfS= 7).
                        Self-field    : sphere-specific E.n sum rule (ISelfD= 2).
 1st derivatives      : Analytical E(r).r(x)/FMM algorithm (CHGder, D1EAlg=3).
                        Cavity 1st derivative terms included.
 Solvent              : Water, Eps=  78.355300 Eps(inf)=   1.777849
 ------------------------------------------------------------------------------
 Spheres list:
 ISph  on   Nord     Re0    Alpha      Xe            Ye            Ze
    1  Pt      1    1.3770  1.100     -0.113302     -0.021878     -0.166890
    2   N      2    1.8300  1.100     -2.060737      0.304506     -0.661269
    3   O      3    1.7500  1.100     -2.392090      1.581374     -0.502589
    4   O      4    1.7500  1.100     -2.898662     -0.470319      0.014354
    5   N      5    1.8300  1.100     -0.666509     -0.713658      1.671186
    6   O      6    1.7500  1.100     -1.486369      0.139394      2.277858
    7   O      7    1.7500  1.100     -1.221428     -1.917432      1.633237
    8  Cl      8    1.9735  1.100     -0.233588     -2.148526     -1.052378
    9  Cl      9    1.9735  1.100      0.447730      0.662540     -2.030471
   10   N     10    1.8300  1.100      0.015791      1.848654      0.623431
   11   O     11    1.7500  1.100      0.738187      1.844072      1.737725
   12   O     12    1.7500  1.100      0.498947      2.751263     -0.220912
   13  Br     13    2.0945  1.100      2.236247     -0.415288      0.413571
 ------------------------------------------------------------------------------
 One-electron integrals computed using PRISM.
   1 Symmetry operations used in ECPInt.
 ECPInt:  NShTT=    4095 NPrTT=   18359 LenC2=    3861 LenP2D=   12230.
 LDataN:  DoStor=T MaxTD1= 6 Len=  172
 NBasis=   216 RedAO= T EigKep=  3.30D-03  NBF=   216
 NBsUse=   216 1.00D-06 EigRej= -1.00D+00 NBFU=   216
 Defaulting to unpruned grid for atomic number  78.
 Initial guess from the checkpoint file:  "/home/scr/diego/Gau-25384.chk"
 B after Tr=     0.000000    0.000000    0.000000
         Rot=    0.999681    0.007665   -0.009649   -0.022063 Ang=   2.90 deg.
 ExpMin= 2.90D-02 ExpMax= 1.13D+05 ExpMxC= 1.70D+04 IAcc=3 IRadAn=         5 AccDes= 0.00D+00
 Harris functional with IExCor=  402 and IRadAn=       5 diagonalized for initial guess.
 HarFok:  IExCor=  402 AccDes= 0.00D+00 IRadAn=         5 IDoV= 1 UseB2=F ITyADJ=14
 ICtDFT=  3500011 ScaDFX=  1.000000  1.000000  1.000000  1.000000
 Defaulting to unpruned grid for atomic number  78.
 Defaulting to unpruned grid for atomic number  78.
 Defaulting to unpruned grid for atomic number  78.
 Defaulting to unpruned grid for atomic number  78.
 Defaulting to unpruned grid for atomic number  78.
 Defaulting to unpruned grid for atomic number  78.
 Defaulting to unpruned grid for atomic number  78.
 Defaulting to unpruned grid for atomic number  78.
 FoFCou: FMM=F IPFlag=           0 FMFlag=      100000 FMFlg1=           0
         NFxFlg=           0 DoJE=T BraDBF=F KetDBF=T FulRan=T
         wScrn=  0.000000 ICntrl=     500 IOpCl=  0 I1Cent=   200000004 NGrid=           0
         NMat0=    1 NMatS0=      1 NMatT0=    0 NMatD0=    1 NMtDS0=    0 NMtDT0=    0
 Petite list used in FoFCou.
 Keep R1 ints in memory in canonical form, NReq=281142920.
 Requested convergence on RMS density matrix=1.00D-08 within 128 cycles.
 Requested convergence on MAX density matrix=1.00D-06.
 Requested convergence on             energy=1.00D-06.
 No special actions if energy rises.
 Defaulting to unpruned grid for atomic number  78.
 Defaulting to unpruned grid for atomic number  78.
 Defaulting to unpruned grid for atomic number  78.
 Defaulting to unpruned grid for atomic number  78.
 Defaulting to unpruned grid for atomic number  78.
 Defaulting to unpruned grid for atomic number  78.
 Defaulting to unpruned grid for atomic number  78.
 Defaulting to unpruned grid for atomic number  78.
 Inv3:  Mode=1 IEnd=     7632075.
 Iteration    1 A*A^-1 deviation from unit magnitude is 8.44D-15 for   1158.
 Iteration    1 A*A^-1 deviation from orthogonality  is 5.74D-15 for   1064     28.
 Iteration    1 A^-1*A deviation from unit magnitude is 6.88D-15 for   1252.
 Iteration    1 A^-1*A deviation from orthogonality  is 2.84D-15 for    567    523.
 Error on total polarization charges =  0.00982
 SCF Done:  E(RB3LYP) =  -4228.22514860     A.U. after   16 cycles
            NFock= 16  Conv=0.97D-08     -V/T= 2.0219
   1 Symmetry operations used in ECPInt.
 ECPInt:  NShTT=    4095 NPrTT=   18359 LenC2=    3861 LenP2D=   12230.
 LDataN:  DoStor=T MaxTD1= 7 Len=  274
 D1PCM: PCM CHGder 1st derivatives, ID1Alg=3 FixD1E=F DoIter=F DoCFld=F I1PDM=0.
 Calling FoFJK, ICntrl=      2127 FMM=F ISym2X=0 I1Cent= 0 IOpClX= 0 NMat=1 NMatS=1 NMatT=0.
 Defaulting to unpruned grid for atomic number  78.
 Defaulting to unpruned grid for atomic number  78.
 Defaulting to unpruned grid for atomic number  78.
 Defaulting to unpruned grid for atomic number  78.
 Defaulting to unpruned grid for atomic number  78.
 Defaulting to unpruned grid for atomic number  78.
 Defaulting to unpruned grid for atomic number  78.
 Defaulting to unpruned grid for atomic number  78.
 ***** Axes restored to original set *****
 -------------------------------------------------------------------
 Center     Atomic                   Forces (Hartrees/Bohr)
 Number     Number              X              Y              Z
 -------------------------------------------------------------------
      1       78          -0.010847289    0.017858801   -0.098201580
      2        7           0.093839797   -0.103002303   -0.129614764
      3        8          -0.080059608    0.026797937    0.025745361
      4        8          -0.003152260    0.029035301    0.087991961
      5        7          -0.031634624   -0.150725680   -0.103810297
      6        8          -0.034530187    0.070517933    0.025952024
      7        8           0.063673269    0.060313310    0.025681326
      8       17          -0.033860960    0.002993284    0.005992486
      9       17          -0.009577116   -0.005959761    0.155701825
     10        7           0.097941535    0.153689061    0.063056587
     11        8          -0.025511936   -0.083581466    0.018219188
     12        8          -0.025561216   -0.046224648   -0.075101832
     13       35          -0.000719406    0.028288231   -0.001612285
 -------------------------------------------------------------------
 Cartesian Forces:  Max     0.155701825 RMS     0.070223159

 GradGradGradGradGradGradGradGradGradGradGradGradGradGradGradGradGradGrad
 Berny optimization.
 Using GEDIIS/GDIIS optimizer.
 FormGI is forming the generalized inverse of G from B-inverse, IUseBI=4.
 Internal  Forces:  Max     0.155884734 RMS     0.036762840
 Search for a local minimum.
 Step number   2 out of a maximum of   73
 All quantities printed in internal units (Hartrees-Bohrs-Radians)
 Mixed Optimization -- RFO/linear search
 Update second derivatives using D2CorX and points    1    2
 DE= -1.10D-01 DEPred=-1.13D-01 R= 9.73D-01
 TightC=F SS=  1.41D+00  RLast= 3.50D-01 DXNew= 5.0454D-01 1.0499D+00
 Trust test= 9.73D-01 RLast= 3.50D-01 DXMaxT set to 5.05D-01
 ITU=  1  0
 Use linear search instead of GDIIS.
 Linear search step of   0.596 exceeds DXMaxT=   0.505 but not scaled.
 Quartic linear search produced a step of  2.00000.
 Iteration  1 RMS(Cart)=  0.15408105 RMS(Int)=  0.01446818
 Iteration  2 RMS(Cart)=  0.01376869 RMS(Int)=  0.00531336
 Iteration  3 RMS(Cart)=  0.00014914 RMS(Int)=  0.00531239
 Iteration  4 RMS(Cart)=  0.00000163 RMS(Int)=  0.00531239
 Iteration  5 RMS(Cart)=  0.00000002 RMS(Int)=  0.00531239
 Variable       Old X    -DE/DX   Delta X   Delta X   Delta X     New X
                                 (Linear)    (Quad)   (Total)
    R1        3.84662   0.04717   0.17213   0.00000   0.17213   4.01875
    R2        3.85574   0.05200   0.19038   0.00000   0.19038   4.04612
    R3        4.35916   0.03389   0.10118   0.00000   0.10118   4.46034
    R4        3.89857   0.15588   0.27604   0.00000   0.27604   4.17461
    R5        3.84510   0.04722   0.16909   0.00000   0.16909   4.01419
    R6        4.63353   0.02831   0.08298   0.00000   0.08298   4.71651
    R7        2.51082  -0.07923  -0.11841   0.00000  -0.11841   2.39242
    R8        2.50625  -0.08386  -0.12756   0.00000  -0.12756   2.37869
    R9        2.51264  -0.07527  -0.11478   0.00000  -0.11478   2.39786
   R10        2.50590  -0.08242  -0.12826   0.00000  -0.12826   2.37764
   R11        2.50952  -0.08019  -0.12102   0.00000  -0.12102   2.38850
   R12        2.50776  -0.08295  -0.12454   0.00000  -0.12454   2.38322
    A1        1.58456  -0.00178   0.02753   0.00000   0.02780   1.61236
    A2        1.57550   0.00210   0.00941   0.00000   0.00877   1.58427
    A3        1.55838  -0.00282  -0.02483   0.00000  -0.02524   1.53315
    A4        1.57843   0.00396   0.01526   0.00000   0.01592   1.59435
    A5        1.58989   0.00653   0.03819   0.00000   0.03786   1.62776
    A6        1.54978  -0.00507  -0.04204   0.00000  -0.04240   1.50738
    A7        1.56294   0.00019  -0.01571   0.00000  -0.01591   1.54703
    A8        1.54407  -0.00844  -0.05346   0.00000  -0.05317   1.49090
    A9        1.56372  -0.00261  -0.01416   0.00000  -0.01395   1.54977
   A10        1.59943   0.00702   0.05727   0.00000   0.05757   1.65700
   A11        1.57728   0.00440   0.01298   0.00000   0.01322   1.59051
   A12        1.56555  -0.00346  -0.01049   0.00000  -0.01066   1.55489
   A13        1.94301   0.01154   0.06475   0.00000   0.05322   1.99623
   A14        1.96823   0.01820   0.11519   0.00000   0.10407   2.07229
   A15        1.92095   0.01339   0.02063   0.00000   0.00486   1.92581
   A16        1.93981   0.00876   0.05835   0.00000   0.04645   1.98626
   A17        1.97736   0.02725   0.13346   0.00000   0.12219   2.09956
   A18        1.91498   0.00859   0.00870   0.00000  -0.00741   1.90757
   A19        1.93612   0.01006   0.05098   0.00000   0.03828   1.97440
   A20        1.98367   0.02648   0.14607   0.00000   0.13418   2.11785
   A21        1.91577   0.00995   0.01027   0.00000  -0.00667   1.90909
   A22        3.14750  -0.00159   0.01182   0.00000   0.01189   3.15939
   A23        3.14294  -0.00460   0.00270   0.00000   0.00256   3.14550
   A24        3.15393   0.00606   0.02467   0.00000   0.02469   3.17862
   A25        3.13933  -0.00050  -0.00452   0.00000  -0.00428   3.13505
   A26        3.14922   0.00192   0.01525   0.00000   0.01527   3.16448
   A27        3.13984   0.00153  -0.00350   0.00000  -0.00318   3.13666
    D1        1.72778   0.01785   0.05730   0.00000   0.05980   1.78758
    D2       -0.44136  -0.02262  -0.09218   0.00000  -0.09458  -0.53594
    D3       -2.96545   0.02440   0.09563   0.00000   0.09821  -2.86724
    D4        1.14860  -0.01606  -0.05385   0.00000  -0.05617   1.09243
    D5       -1.42144   0.01593   0.04205   0.00000   0.04453  -1.37691
    D6        2.69261  -0.02454  -0.10742   0.00000  -0.10985   2.58276
    D7        0.17790   0.02287   0.09914   0.00000   0.10139   0.27929
    D8       -1.99124  -0.01759  -0.05034   0.00000  -0.05299  -2.04423
    D9       -0.89007  -0.01894  -0.06973   0.00000  -0.07164  -0.96172
   D10        1.27559   0.01996   0.07281   0.00000   0.07586   1.35145
   D11       -2.46584  -0.02110  -0.07966   0.00000  -0.08255  -2.54839
   D12       -0.30017   0.01781   0.06287   0.00000   0.06495  -0.23522
   D13        0.68807  -0.01501  -0.05504   0.00000  -0.05801   0.63006
   D14        2.85373   0.02389   0.08750   0.00000   0.08950   2.94323
   D15        2.25378  -0.01844  -0.06520   0.00000  -0.06736   2.18642
   D16       -1.86374   0.02046   0.07733   0.00000   0.08014  -1.78360
   D17        2.45450  -0.02135  -0.06256   0.00000  -0.06557   2.38893
   D18       -1.66008   0.02000   0.08585   0.00000   0.08800  -1.57209
   D19        0.87010  -0.01944  -0.08977   0.00000  -0.09212   0.77798
   D20        3.03870   0.02190   0.05864   0.00000   0.06144   3.10014
   D21       -2.27009  -0.02400  -0.08696   0.00000  -0.08913  -2.35922
   D22       -0.10149   0.01734   0.06145   0.00000   0.06443  -0.03705
   D23       -0.69295  -0.01973  -0.07428   0.00000  -0.07706  -0.77001
   D24        1.47565   0.02161   0.07413   0.00000   0.07651   1.55216
         Item               Value     Threshold  Converged?
 Maximum Force            0.155885     0.000450     NO 
 RMS     Force            0.036763     0.000300     NO 
 Maximum Displacement     0.407394     0.001800     NO 
 RMS     Displacement     0.152156     0.001200     NO 
 Predicted change in Energy=-1.089546D-01
 GradGradGradGradGradGradGradGradGradGradGradGradGradGradGradGradGradGrad

                          Input orientation:                          
 ---------------------------------------------------------------------
 Center     Atomic      Atomic             Coordinates (Angstroms)
 Number     Number       Type             X           Y           Z
 ---------------------------------------------------------------------
      1         78           0       -0.376471    0.341973    0.031447
      2          7           0       -0.321148   -1.783652    0.066421
      3          8           0        0.808663   -2.272124    0.362585
      4          8           0       -0.834606   -2.418198   -0.891785
      5          7           0       -0.302414    0.397708   -2.107663
      6          8           0        0.684799   -0.227385   -2.602394
      7          8           0       -1.333268    0.149824   -2.785118
      8         17           0       -2.736033    0.313224    0.083510
      9         17           0       -0.503576    0.291749    2.236325
     10          7           0        1.744373    0.446264   -0.027157
     11          8           0        2.176671    1.304258   -0.848438
     12          8           0        2.428116    0.498323    1.031271
     13         35           0       -0.459290    2.836466    0.034202
 ---------------------------------------------------------------------
                    Distance matrix (angstroms):
                    1          2          3          4          5
     1  Pt   0.000000
     2  N    2.126633   0.000000
     3  O    2.889239   1.266013   0.000000
     4  O    2.946317   1.258747   2.072465   0.000000
     5  N    2.141117   3.079825   3.803238   3.113023   0.000000
     6  O    2.896133   3.249072   3.603804   3.167718   1.268893
     7  O    2.980842   3.590820   4.512397   3.229258   1.258193
     8  Cl   2.360311   3.198258   4.396223   3.468038   3.275802
     9  Cl   2.209110   3.008165   3.436032   4.151923   4.349934
    10  N    2.124216   3.040996   2.901221   3.950171   2.918938
    11  O    2.866832   4.075691   4.016035   4.788146   2.924610
    12  O    2.981578   3.700918   3.277979   4.780124   4.161590
    13  Br   2.495868   4.622295   5.273825   5.348813   3.249575
                    6          7          8          9         10
     6  O    0.000000
     7  O    2.061133   0.000000
     8  Cl   4.382743   3.197417   0.000000
     9  Cl   5.009485   5.091505   3.101442   0.000000
    10  N    2.865021   4.143199   4.483747   3.193822   0.000000
    11  O    2.765497   4.171704   5.097582   4.210067   1.263938
    12  O    4.095038   5.369757   5.253661   3.176420   1.261145
    13  Br   4.200924   3.991296   3.398932   3.365545   3.251609
                   11         12         13
    11  O    0.000000
    12  O    2.060598   0.000000
    13  Br   3.174115   3.846840   0.000000
 Stoichiometry    BrCl2N3O6Pt(2-)
 Framework group  C1[X(BrCl2N3O6Pt)]
 Deg. of freedom    33
 Full point group                 C1      NOp   1
 Largest Abelian subgroup         C1      NOp   1
 Largest concise Abelian subgroup C1      NOp   1
                         Standard orientation:                         
 ---------------------------------------------------------------------
 Center     Atomic      Atomic             Coordinates (Angstroms)
 Number     Number       Type             X           Y           Z
 ---------------------------------------------------------------------
      1         78           0       -0.121617   -0.068446   -0.153695
      2          7           0       -2.199514    0.025576   -0.596497
      3          8           0       -2.644386    1.198185   -0.769312
      4          8           0       -2.998958   -0.646586    0.106022
      5          7           0       -0.489395   -0.392952    1.930488
      6          8           0       -1.220704    0.495119    2.465844
      7          8           0       -0.843455   -1.527494    2.343413
      8         17           0       -0.088757   -2.376751   -0.645344
      9         17           0        0.265642    0.216039   -2.309911
     10          7           0       -0.076578    2.002914    0.315059
     11          8           0        0.593575    2.262084    1.354898
     12          8           0        0.167950    2.870056   -0.567413
     13         35           0        2.325865   -0.188250    0.320474
 ---------------------------------------------------------------------
 Rotational constants (GHZ):      0.4826838      0.3882160      0.3754670
 Basis read from rwf:  (5D, 7F)
 Pseudo-potential data read from rwf file.
 There are   232 symmetry adapted cartesian basis functions of A   symmetry.
 There are   216 symmetry adapted basis functions of A   symmetry.
   216 basis functions,   422 primitive gaussians,   232 cartesian basis functions
    79 alpha electrons       79 beta electrons
       nuclear repulsion energy      1825.0136910875 Hartrees.
 NAtoms=   13 NActive=   13 NUniq=   13 SFac= 1.00D+00 NAtFMM=   60 NAOKFM=F Big=F
 Integral buffers will be    131072 words long.
 Raffenetti 2 integral format.
 Two-electron integral symmetry is turned on.
 ------------------------------------------------------------------------------
 Polarizable Continuum Model (PCM)
 =================================
 Model                : PCM (using non-symmetric T matrix).
 Atomic radii         : UFF (Universal Force Field).
 Polarization charges : Total charges.
 Charge compensation  : None.
 Solution method      : On-the-fly selection.
 Cavity type          : Scaled VdW (van der Waals Surface) (Alpha=1.100).
 Cavity algorithm     : GePol (No added spheres)
                        Default sphere list used, NSphG=   13.
                        Lebedev-Laikov grids with approx.  5.0 points / Ang**2.
                        Smoothing algorithm: Karplus/York (Gamma=1.0000).
                        Polarization charges: spherical gaussians, with
                                              point-specific exponents (IZeta= 3).
                        Self-potential: point-specific (ISelfS= 7).
                        Self-field    : sphere-specific E.n sum rule (ISelfD= 2).
 1st derivatives      : Analytical E(r).r(x)/FMM algorithm (CHGder, D1EAlg=3).
                        Cavity 1st derivative terms included.
 Solvent              : Water, Eps=  78.355300 Eps(inf)=   1.777849
 ------------------------------------------------------------------------------
 Spheres list:
 ISph  on   Nord     Re0    Alpha      Xe            Ye            Ze
    1  Pt      1    1.3770  1.100     -0.121617     -0.068446     -0.153695
    2   N      2    1.8300  1.100     -2.199514      0.025576     -0.596497
    3   O      3    1.7500  1.100     -2.644386      1.198185     -0.769312
    4   O      4    1.7500  1.100     -2.998958     -0.646586      0.106022
    5   N      5    1.8300  1.100     -0.489395     -0.392952      1.930488
    6   O      6    1.7500  1.100     -1.220704      0.495119      2.465844
    7   O      7    1.7500  1.100     -0.843455     -1.527494      2.343413
    8  Cl      8    1.9735  1.100     -0.088757     -2.376751     -0.645344
    9  Cl      9    1.9735  1.100      0.265642      0.216039     -2.309911
   10   N     10    1.8300  1.100     -0.076578      2.002914      0.315059
   11   O     11    1.7500  1.100      0.593575      2.262084      1.354898
   12   O     12    1.7500  1.100      0.167950      2.870056     -0.567413
   13  Br     13    2.0945  1.100      2.325865     -0.188250      0.320474
 ------------------------------------------------------------------------------
 One-electron integrals computed using PRISM.
   1 Symmetry operations used in ECPInt.
 ECPInt:  NShTT=    4095 NPrTT=   18359 LenC2=    3830 LenP2D=   12077.
 LDataN:  DoStor=T MaxTD1= 6 Len=  172
 NBasis=   216 RedAO= T EigKep=  4.07D-03  NBF=   216
 NBsUse=   216 1.00D-06 EigRej= -1.00D+00 NBFU=   216
 Defaulting to unpruned grid for atomic number  78.
 Initial guess from the checkpoint file:  "/home/scr/diego/Gau-25384.chk"
 B after Tr=     0.000000    0.000000    0.000000
         Rot=    0.993569    0.099492   -0.033552   -0.042392 Ang=  13.00 deg.
 ExpMin= 2.90D-02 ExpMax= 1.13D+05 ExpMxC= 1.70D+04 IAcc=3 IRadAn=         5 AccDes= 0.00D+00
 Harris functional with IExCor=  402 and IRadAn=       5 diagonalized for initial guess.
 HarFok:  IExCor=  402 AccDes= 0.00D+00 IRadAn=         5 IDoV= 1 UseB2=F ITyADJ=14
 ICtDFT=  3500011 ScaDFX=  1.000000  1.000000  1.000000  1.000000
 Defaulting to unpruned grid for atomic number  78.
 Defaulting to unpruned grid for atomic number  78.
 Defaulting to unpruned grid for atomic number  78.
 Defaulting to unpruned grid for atomic number  78.
 Defaulting to unpruned grid for atomic number  78.
 Defaulting to unpruned grid for atomic number  78.
 Defaulting to unpruned grid for atomic number  78.
 Defaulting to unpruned grid for atomic number  78.
 FoFCou: FMM=F IPFlag=           0 FMFlag=      100000 FMFlg1=           0
         NFxFlg=           0 DoJE=T BraDBF=F KetDBF=T FulRan=T
         wScrn=  0.000000 ICntrl=     500 IOpCl=  0 I1Cent=   200000004 NGrid=           0
         NMat0=    1 NMatS0=      1 NMatT0=    0 NMatD0=    1 NMtDS0=    0 NMtDT0=    0
 Petite list used in FoFCou.
 Keep R1 ints in memory in canonical form, NReq=281182613.
 Requested convergence on RMS density matrix=1.00D-08 within 128 cycles.
 Requested convergence on MAX density matrix=1.00D-06.
 Requested convergence on             energy=1.00D-06.
 No special actions if energy rises.
 Defaulting to unpruned grid for atomic number  78.
 Defaulting to unpruned grid for atomic number  78.
 Defaulting to unpruned grid for atomic number  78.
 Defaulting to unpruned grid for atomic number  78.
 Defaulting to unpruned grid for atomic number  78.
 Defaulting to unpruned grid for atomic number  78.
 Defaulting to unpruned grid for atomic number  78.
 Defaulting to unpruned grid for atomic number  78.
 Inv3:  Mode=1 IEnd=     8598747.
 Iteration    1 A*A^-1 deviation from unit magnitude is 7.11D-15 for    969.
 Iteration    1 A*A^-1 deviation from orthogonality  is 3.47D-15 for    954    496.
 Iteration    1 A^-1*A deviation from unit magnitude is 6.77D-15 for   1318.
 Iteration    1 A^-1*A deviation from orthogonality  is 1.20D-14 for   1044   1034.
 Error on total polarization charges =  0.00921
 SCF Done:  E(RB3LYP) =  -4228.34643106     A.U. after   18 cycles
            NFock= 18  Conv=0.34D-08     -V/T= 2.0219
   1 Symmetry operations used in ECPInt.
 ECPInt:  NShTT=    4095 NPrTT=   18359 LenC2=    3830 LenP2D=   12077.
 LDataN:  DoStor=T MaxTD1= 7 Len=  274
 D1PCM: PCM CHGder 1st derivatives, ID1Alg=3 FixD1E=F DoIter=F DoCFld=F I1PDM=0.
 Calling FoFJK, ICntrl=      2127 FMM=F ISym2X=0 I1Cent= 0 IOpClX= 0 NMat=1 NMatS=1 NMatT=0.
 Defaulting to unpruned grid for atomic number  78.
 Defaulting to unpruned grid for atomic number  78.
 Defaulting to unpruned grid for atomic number  78.
 Defaulting to unpruned grid for atomic number  78.
 Defaulting to unpruned grid for atomic number  78.
 Defaulting to unpruned grid for atomic number  78.
 Defaulting to unpruned grid for atomic number  78.
 Defaulting to unpruned grid for atomic number  78.
 ***** Axes restored to original set *****
 -------------------------------------------------------------------
 Center     Atomic                   Forces (Hartrees/Bohr)
 Number     Number              X              Y              Z
 -------------------------------------------------------------------
      1       78          -0.003103759    0.001414024   -0.044109576
      2        7           0.075090746   -0.071466699   -0.087137131
      3        8          -0.027606217    0.030947966    0.040150729
      4        8          -0.036795221    0.031975139    0.031889290
      5        7          -0.008919297   -0.112736993   -0.073925750
      6        8           0.011443487    0.041281319    0.031938266
      7        8          -0.006901830    0.050299869    0.032193922
      8       17          -0.015274531    0.000104530   -0.002403147
      9       17           0.001695990   -0.003766200    0.064476477
     10        7           0.071487325    0.114044957    0.035828830
     11        8          -0.028999779   -0.043576540   -0.022060744
     12        8          -0.032782788   -0.053219598   -0.005801778
     13       35           0.000665873    0.014698226   -0.001039386
 -------------------------------------------------------------------
 Cartesian Forces:  Max     0.114044957 RMS     0.046116792

 GradGradGradGradGradGradGradGradGradGradGradGradGradGradGradGradGradGrad
 Berny optimization.
 Using GEDIIS/GDIIS optimizer.
 FormGI is forming the generalized inverse of G from B-inverse, IUseBI=4.
 Internal  Forces:  Max     0.064331182 RMS     0.020430423
 Search for a local minimum.
 Step number   3 out of a maximum of   73
 All quantities printed in internal units (Hartrees-Bohrs-Radians)
 Mixed Optimization -- RFO/linear search
 Update second derivatives using D2CorX and points    2    3
 ITU=  0  1  0
 Use linear search instead of GDIIS.
     Eigenvalues ---    0.00230   0.00230   0.00230   0.02296   0.02360
     Eigenvalues ---    0.02481   0.07898   0.08208   0.08748   0.08875
     Eigenvalues ---    0.08953   0.09077   0.15996   0.16763   0.17698
     Eigenvalues ---    0.18179   0.19658   0.20378   0.20379   0.21821
     Eigenvalues ---    0.24677   0.25000   0.25000   0.25000   0.25000
     Eigenvalues ---    0.30956   0.44143   0.52948   0.52948   0.52948
     Eigenvalues ---    0.52948   0.52974   0.57543
 RFO step:  Lambda=-1.18286971D-01 EMin= 2.29900107D-03
 Quartic linear search produced a step of  0.56120.
 Iteration  1 RMS(Cart)=  0.08171801 RMS(Int)=  0.00956202
 Iteration  2 RMS(Cart)=  0.00849031 RMS(Int)=  0.00537562
 Iteration  3 RMS(Cart)=  0.00005979 RMS(Int)=  0.00537545
 Iteration  4 RMS(Cart)=  0.00000050 RMS(Int)=  0.00537545
 Variable       Old X    -DE/DX   Delta X   Delta X   Delta X     New X
                                 (Linear)    (Quad)   (Total)
    R1        4.01875   0.00855   0.09660  -0.00543   0.09117   4.10992
    R2        4.04612   0.00910   0.10684  -0.00731   0.09953   4.14565
    R3        4.46034   0.01521   0.05678   0.03203   0.08881   4.54915
    R4        4.17461   0.06433   0.15491   0.06155   0.21646   4.39107
    R5        4.01419   0.01033   0.09489   0.00194   0.09683   4.11101
    R6        4.71651   0.01468   0.04657   0.03713   0.08370   4.80021
    R7        2.39242  -0.02722  -0.06645  -0.02068  -0.08713   2.30529
    R8        2.37869  -0.02539  -0.07159  -0.01476  -0.08635   2.29234
    R9        2.39786  -0.02385  -0.06441  -0.01552  -0.07993   2.31793
   R10        2.37764  -0.02161  -0.07198  -0.00759  -0.07957   2.29807
   R11        2.38850  -0.02519  -0.06792  -0.01601  -0.08393   2.30457
   R12        2.38322  -0.02482  -0.06989  -0.01393  -0.08382   2.29940
    A1        1.61236  -0.01045   0.01560  -0.05671  -0.04108   1.57128
    A2        1.58427   0.00174   0.00492   0.00773   0.01227   1.59653
    A3        1.53315   0.00280  -0.01416   0.01411  -0.00016   1.53298
    A4        1.59435   0.00046   0.00894  -0.00117   0.00840   1.60275
    A5        1.62776  -0.00544   0.02125  -0.02894  -0.00744   1.62032
    A6        1.50738   0.00841  -0.02379   0.04567   0.02207   1.52945
    A7        1.54703   0.00510  -0.00893   0.02470   0.01586   1.56289
    A8        1.49090   0.00575  -0.02984   0.03329   0.00365   1.49455
    A9        1.54977   0.00062  -0.00783   0.00697  -0.00071   1.54906
   A10        1.65700  -0.00845   0.03231  -0.04848  -0.01598   1.64102
   A11        1.59051   0.00260   0.00742   0.01819   0.02562   1.61612
   A12        1.55489  -0.00290  -0.00598  -0.01395  -0.01998   1.53490
   A13        1.99623  -0.01657   0.02987  -0.03437  -0.01802   1.97821
   A14        2.07229  -0.02074   0.05840  -0.05476  -0.00969   2.06260
   A15        1.92581   0.04830   0.00273   0.21539   0.20269   2.12850
   A16        1.98626  -0.01821   0.02607  -0.03818  -0.02486   1.96139
   A17        2.09956  -0.02110   0.06857  -0.06428  -0.00819   2.09137
   A18        1.90757   0.04922  -0.00416   0.22216   0.20341   2.11098
   A19        1.97440  -0.01494   0.02148  -0.02603  -0.01840   1.95600
   A20        2.11785  -0.02618   0.07530  -0.08068  -0.01894   2.09891
   A21        1.90909   0.05130  -0.00375   0.23010   0.21070   2.11980
   A22        3.15939  -0.00535   0.00667  -0.03200  -0.02521   3.13417
   A23        3.14550  -0.00765   0.00144  -0.04260  -0.04124   3.10427
   A24        3.17862   0.00220   0.01386   0.00655   0.02066   3.19928
   A25        3.13505   0.00196  -0.00240   0.01237   0.01018   3.14523
[...]
    D4        0.85959   0.00000   0.00000   0.00075   0.00075   0.86034
    D5       -0.71790  -0.00001   0.00000   0.00059   0.00059  -0.71732
    D6        2.43196   0.00000   0.00000   0.00057   0.00057   2.43253
    D7        0.87726   0.00000   0.00000   0.00064   0.00064   0.87790
    D8       -2.25607   0.00000   0.00000   0.00062   0.00062  -2.25545
    D9       -0.76487   0.00000   0.00000  -0.00049  -0.00049  -0.76536
   D10        2.36820   0.00000   0.00000  -0.00050  -0.00050   2.36769
   D11       -2.30713   0.00001   0.00000  -0.00024  -0.00024  -2.30738
   D12        0.82594   0.00001   0.00000  -0.00026  -0.00026   0.82568
   D13        0.81705   0.00000   0.00000  -0.00048  -0.00048   0.81656
   D14       -2.33307   0.00000   0.00000  -0.00050  -0.00050  -2.33357
   D15        2.35842  -0.00001   0.00000  -0.00052  -0.00052   2.35790
   D16       -0.79170  -0.00001   0.00000  -0.00053  -0.00053  -0.79223
   D17        2.16539   0.00000   0.00000   0.00021   0.00021   2.16560
   D18       -0.96492   0.00000   0.00000   0.00025   0.00025  -0.96467
   D19        0.62630   0.00000   0.00000   0.00026   0.00026   0.62656
   D20       -2.50401   0.00000   0.00000   0.00029   0.00029  -2.50371
   D21       -2.53014   0.00000   0.00000   0.00038   0.00038  -2.52975
   D22        0.62274   0.00000   0.00000   0.00042   0.00042   0.62316
   D23       -0.96866   0.00000   0.00000   0.00030   0.00030  -0.96835
   D24        2.18422   0.00000   0.00000   0.00034   0.00034   2.18456
         Item               Value     Threshold  Converged?
 Maximum Force            0.000024     0.000450     YES
 RMS     Force            0.000007     0.000300     YES
 Maximum Displacement     0.000988     0.001800     YES
 RMS     Displacement     0.000361     0.001200     YES
 Predicted change in Energy=-2.424548D-08
 Optimization completed.
    -- Stationary point found.
                           ----------------------------
                           !   Optimized Parameters   !
                           ! (Angstroms and Degrees)  !
 --------------------------                            --------------------------
 ! Name  Definition              Value          Derivative Info.                !
 --------------------------------------------------------------------------------
 ! R1    R(1,2)                  2.1183         -DE/DX =    0.0                 !
 ! R2    R(1,5)                  2.0981         -DE/DX =    0.0                 !
 ! R3    R(1,8)                  2.4581         -DE/DX =    0.0                 !
 ! R4    R(1,9)                  2.4568         -DE/DX =    0.0                 !
 ! R5    R(1,10)                 2.1089         -DE/DX =    0.0                 !
 ! R6    R(1,13)                 2.611          -DE/DX =    0.0                 !
 ! R7    R(2,3)                  1.2124         -DE/DX =    0.0                 !
 ! R8    R(2,4)                  1.2157         -DE/DX =    0.0                 !
 ! R9    R(5,6)                  1.2193         -DE/DX =    0.0                 !
 ! R10   R(5,7)                  1.2126         -DE/DX =    0.0                 !
 ! R11   R(10,11)                1.2176         -DE/DX =    0.0                 !
 ! R12   R(10,12)                1.2129         -DE/DX =    0.0                 !
 ! A1    A(2,1,5)               88.1995         -DE/DX =    0.0                 !
 ! A2    A(2,1,8)               88.3643         -DE/DX =    0.0                 !
 ! A3    A(2,1,9)               90.9515         -DE/DX =    0.0                 !
 ! A4    A(2,1,10)              90.5905         -DE/DX =    0.0                 !
 ! A5    A(5,1,8)               89.9604         -DE/DX =    0.0                 !
 ! A6    A(5,1,10)              88.5218         -DE/DX =    0.0                 !
 ! A7    A(5,1,13)              91.3406         -DE/DX =    0.0                 !
 ! A8    A(8,1,9)               90.117          -DE/DX =    0.0                 !
 ! A9    A(8,1,13)              92.6839         -DE/DX =    0.0                 !
 ! A10   A(9,1,10)              91.3859         -DE/DX =    0.0                 !
 ! A11   A(9,1,13)              89.5064         -DE/DX =    0.0                 !
 ! A12   A(10,1,13)             88.3497         -DE/DX =    0.0                 !
 ! A13   A(1,2,3)              118.5642         -DE/DX =    0.0                 !
 ! A14   A(1,2,4)              116.9857         -DE/DX =    0.0                 !
 ! A15   A(3,2,4)              124.4483         -DE/DX =    0.0                 !
 ! A16   A(1,5,6)              116.1823         -DE/DX =    0.0                 !
 ! A17   A(1,5,7)              119.7503         -DE/DX =    0.0                 !
 ! A18   A(6,5,7)              124.0655         -DE/DX =    0.0                 !
 ! A19   A(1,10,11)            116.9017         -DE/DX =    0.0                 !
 ! A20   A(1,10,12)            118.9472         -DE/DX =    0.0                 !
 ! A21   A(11,10,12)           124.1477         -DE/DX =    0.0                 !
 ! A22   L(2,1,13,5,-1)        179.5401         -DE/DX =    0.0                 !
 ! A23   L(5,1,9,2,-1)         179.151          -DE/DX =    0.0                 !
 ! A24   L(8,1,10,2,-1)        178.9548         -DE/DX =    0.0                 !
 ! A25   L(2,1,13,5,-2)        181.0485         -DE/DX =    0.0                 !
 ! A26   L(5,1,9,2,-2)         179.8984         -DE/DX =    0.0                 !
 ! A27   L(8,1,10,2,-2)        178.5142         -DE/DX =    0.0                 !
 ! D1    D(5,1,2,3)            138.7656         -DE/DX =    0.0                 !
 ! D2    D(5,1,2,4)            -40.7608         -DE/DX =    0.0                 !
 ! D3    D(8,1,2,3)           -131.2227         -DE/DX =    0.0                 !
 ! D4    D(8,1,2,4)             49.251          -DE/DX =    0.0                 !
 ! D5    D(9,1,2,3)            -41.1328         -DE/DX =    0.0                 !
 ! D6    D(9,1,2,4)            139.3408         -DE/DX =    0.0                 !
 ! D7    D(10,1,2,3)            50.2632         -DE/DX =    0.0                 !
 ! D8    D(10,1,2,4)          -129.2632         -DE/DX =    0.0                 !
 ! D9    D(2,1,5,6)            -43.8241         -DE/DX =    0.0                 !
 ! D10   D(2,1,5,7)            135.6876         -DE/DX =    0.0                 !
 ! D11   D(8,1,5,6)           -132.1888         -DE/DX =    0.0                 !
 ! D12   D(8,1,5,7)             47.3228         -DE/DX =    0.0                 !
 ! D13   D(10,1,5,6)            46.8134         -DE/DX =    0.0                 !
 ! D14   D(10,1,5,7)          -133.675          -DE/DX =    0.0                 !
 ! D15   D(13,1,5,6)           135.1275         -DE/DX =    0.0                 !
 ! D16   D(13,1,5,7)           -45.3609         -DE/DX =    0.0                 !
 ! D17   D(2,1,10,11)          124.0678         -DE/DX =    0.0                 !
 ! D18   D(2,1,10,12)          -55.2856         -DE/DX =    0.0                 !
 ! D19   D(5,1,10,11)           35.8842         -DE/DX =    0.0                 !
 ! D20   D(5,1,10,12)         -143.4692         -DE/DX =    0.0                 !
 ! D21   D(9,1,10,11)         -144.9661         -DE/DX =    0.0                 !
 ! D22   D(9,1,10,12)           35.6805         -DE/DX =    0.0                 !
 ! D23   D(13,1,10,11)         -55.5            -DE/DX =    0.0                 !
 ! D24   D(13,1,10,12)         125.1466         -DE/DX =    0.0                 !
 --------------------------------------------------------------------------------
 GradGradGradGradGradGradGradGradGradGradGradGradGradGradGradGradGradGrad

 1\1\GINC-NEQC17\Freq\RB3LYP\Gen\Br1Cl2N3O6Pt1(2-)\DIEGO\18-Aug-2021\0\
 \#N Geom=AllCheck Guess=TCheck SCRF=Check GenChk RB3LYP/ChkBas Freq\\E
 strutura 57\\-2,1\Pt,-0.3683883823,0.3304497641,-0.021873801\N,-0.0987
 439712,-1.7706289519,-0.0131241333\O,0.6580256839,-2.2545801647,0.8011
 378325\O,-0.7165473124,-2.4095254709,-0.8425542092\N,-0.3257053786,0.2
 607342437,-2.1184061982\O,0.5366443128,-0.4431942379,-2.615820532\O,-1
 .1382478626,0.8938206528,-2.7581553613\Cl,-2.796289563,-0.0520389246,-
 0.0602866111\Cl,-0.4094297064,0.3765416872,2.4341289116\N,1.7203854207
 ,0.6203368202,-0.0434317142\O,2.1738027127,1.2937009225,-0.9509543073\
 O,2.3932852004,0.1070542189,0.8253826556\Br,-0.6529736938,2.9257583006
 ,-0.0528348523\\Version=EM64L-G09RevD.01\State=1-A\HF=-4228.4734707\RM
 SD=2.583e-09\RMSF=3.020e-05\ZeroPoint=0.0392728\Thermal=0.0555592\Dipo
 le=0.4049626,0.3194054,-0.3523318\DipoleDeriv=0.9600594,0.1534004,-0.1
 126954,0.109907,1.1946873,0.095075,-0.1138939,0.0866916,1.0018492,1.20
 86583,-0.2908683,0.8669695,-0.1176171,3.1599265,-0.0275712,0.8752169,0
 .1103179,1.4099575,-0.6928663,0.6052195,-0.4574536,0.4076963,-1.916585
 3,0.3998025,-0.4308569,0.4571657,-0.7849378,-0.6045098,-0.2715139,-0.3
 594196,-0.2054602,-2.0434537,-0.3261487,-0.4000242,-0.5960229,-0.73924
 06,1.4861322,-0.8616971,0.0465009,-0.8669437,1.1122554,0.0433365,0.159
 8265,0.0017369,2.8527354,-0.8131147,0.4570921,0.4486313,0.4542082,-0.6
 314481,-0.4070046,0.27536,-0.2738492,-1.6654495,-0.8262773,0.396774,-0
 .4652533,0.4034392,-0.6234077,0.3121832,-0.46066,0.2954056,-1.8838679,
 -1.5402257,-0.1751403,0.0406345,-0.249533,-0.2868103,0.0151598,-0.0297
 11,-0.0254899,-0.2417219,-0.2442928,-0.0215687,0.0295073,-0.0239558,-0
 .2558045,-0.0171607,0.0802572,-0.0487104,-1.5824979,2.8656792,0.261768
 1,0.229067,0.2039273,1.0365165,-0.7786731,0.104177,-0.8148764,1.566616
 8,-1.6438107,-0.4285979,0.2664752,-0.4496565,-0.7030323,0.4217692,0.44
 84866,0.5062102,-0.8363282,-1.8991956,0.0553567,-0.5293524,0.1379512,-
 0.4520321,0.3037236,-0.516389,0.285186,-0.8655298,-0.2562362,0.1197753
 ,-0.0036112,0.1960371,-1.5908117,-0.0344915,0.0082109,0.016235,-0.2315
 852\Polar=193.3401569,-8.2416549,219.821627,9.6880615,-5.5248315,196.6
 7312\PG=C01 [X(Br1Cl2N3O6Pt1)]\NImag=0\\0.26295527,-0.01285988,0.23576
 916,-0.00032988,0.00065627,0.27050947,-0.04450707,0.00758029,0.0132628
 9,0.48243741,0.00873927,-0.06136803,-0.00472219,-0.01584300,0.54845417
 ,0.01328798,-0.00252490,-0.03709750,0.38491438,0.03871962,0.61633225,0
 .00366023,0.00448450,-0.01312452,-0.25782001,0.13918452,-0.22067725,0.
 30521918,0.01498850,-0.00456018,0.01731217,0.14349745,-0.21289905,0.14
 430359,-0.14014148,0.18061859,-0.00992634,0.00389795,0.00039273,-0.221
 09082,0.13891052,-0.29052998,0.31119138,-0.14183005,0.36723308,0.00659
 530,-0.00259907,-0.00743206,-0.18477182,-0.12479782,-0.17562547,-0.047
 88789,-0.01817747,-0.08181934,0.22805394,-0.01406216,-0.01006975,-0.01
 654618,-0.13123907,-0.27235531,-0.18827158,-0.00358962,0.04844597,0.00
 003519,0.14523903,0.24692026,-0.01025300,-0.00583499,0.00139581,-0.176
 03482,-0.18065747,-0.28875591,-0.07988519,-0.01741527,-0.07691449,0.26
 258517,0.20472806,0.36587902,-0.04110744,-0.01423102,0.00762405,-0.003
 19588,-0.00302513,-0.00543803,0.00113428,0.00115441,0.00033905,0.00079
 619,0.00141819,0.00566505,0.62977660,-0.01464698,-0.04877070,-0.006594
 32,0.00309026,-0.00063629,0.01317008,-0.00080396,-0.00106666,-0.001413
 85,-0.00035451,-0.00203142,-0.00322398,-0.36998757,0.46123990,0.008504
 78,-0.00657934,-0.07221889,-0.00075191,0.02857851,-0.00212003,0.002310
 21,-0.00864770,0.00220913,-0.00182580,-0.00988433,-0.00586643,0.037013
 33,-0.01982387,0.57199532,0.00114783,0.01100288,0.00477745,0.00108242,
 0.00430636,0.00154239,0.00001048,-0.00159658,0.00058056,-0.00132218,-0
 .00297972,-0.00221262,-0.29890573,0.19961388,0.14525097,0.38109787,0.0
 1126958,0.00559768,-0.00394032,-0.00412577,-0.00658998,-0.00385218,0.0
 0112146,0.00144580,0.00076254,0.00037215,0.00216597,0.00706429,0.19923
 258,-0.21680637,-0.12035653,-0.28610767,0.26025332,0.01766335,-0.01448
 435,-0.00871221,0.00034820,-0.00931632,-0.00171305,-0.00066697,0.00364
 570,-0.00070266,0.00118160,0.00554148,0.00224031,0.15332759,-0.1269241
 5,-0.22044040,-0.15145490,0.12529108,0.19078523,0.00073586,0.01064769,
 -0.00552822,0.00114945,-0.00175872,0.00131413,-0.00055339,0.00051563,-
 0.00009356,0.00013673,0.00033714,-0.00129244,-0.28899507,0.18283101,-0
 .18141585,-0.08090560,0.08046142,-0.01959224,0.36644581,0.01054881,0.0
 0633988,0.00425755,-0.00018563,0.00194067,-0.00134666,0.00004008,-0.00
 021424,-0.00005887,-0.00055244,-0.00076780,0.00042096,0.18188709,-0.19
 679272,0.13888924,0.08093805,-0.04450558,0.01647624,-0.26981315,0.2358
 3237,-0.01997849,0.01548318,-0.00634730,0.00002865,-0.00944573,-0.0007
 4137,-0.00084402,0.00350981,-0.00030417,0.00096017,0.00401814,0.001487
 97,-0.18715922,0.14411879,-0.28162513,-0.00199213,0.00230869,0.0505435
 6,0.20539691,-0.15769412,0.25002691,-0.07357921,-0.00712683,-0.0009313
 2,-0.00215397,0.00155556,0.00109685,0.00035736,0.00051240,0.00002451,-
 0.00119462,0.00116510,-0.00043661,-0.00204082,0.00012089,0.00049117,0.
 00058474,-0.00015773,0.00040654,0.00031685,-0.00039032,0.00086538,0.08
 501571,-0.00835347,-0.01669268,0.00034117,0.00144797,-0.00506655,-0.00
 397873,-0.00004746,0.00108042,0.00099987,0.00426891,0.00044860,0.00172
 577,0.00138181,-0.00084475,0.00070231,-0.00054116,0.00043474,0.0000596
 0,-0.00172886,0.00049284,0.00083782,0.00971385,0.01613608,-0.00109100,
 0.00156161,-0.01787351,-0.00145872,-0.00112778,-0.00105995,0.00059734,
 0.00017131,0.00054740,0.00153990,-0.00055560,0.00072634,0.00020586,0.0
 0322811,-0.00480221,0.00024102,-0.00087726,0.00081744,0.00399761,-0.00
 103953,0.00130748,0.00032283,0.00054515,0.01406470,-0.01769515,0.00049
 339,0.00023974,-0.00123094,0.00117767,-0.00141673,0.00079916,0.0002626
 5,0.00165090,0.00048900,-0.00016822,0.00046386,0.00792620,0.00094229,-
 0.00012891,-0.00077525,-0.00080627,-0.00129186,-0.00053138,-0.00083080
 ,0.00181413,-0.00041673,-0.00025773,-0.00443600,0.01501997,0.00039661,
 -0.01750844,-0.00012066,0.00422959,-0.00388967,0.00031757,-0.00159307,
 0.00146822,-0.00435255,-0.00110989,0.00054849,-0.00044063,0.00089488,0
 .00844862,0.00009857,-0.00073572,-0.00115394,0.00097792,-0.00088398,-0
 .00092968,-0.00151406,-0.00031583,0.00119516,-0.00081837,-0.00157590,0
 .01435840,-0.00012946,-0.00097475,-0.07510510,0.00019861,-0.00054435,-
 0.00069350,0.00037380,-0.00110865,-0.00021735,0.00015626,-0.00030771,0
 .00038401,-0.00093275,0.00150892,0.02181145,0.00634721,-0.00551062,-0.
 01371788,-0.00514584,0.00368471,-0.01544646,-0.00146350,-0.00021374,-0
 .00033836,-0.00211847,0.00070800,0.08542792,-0.06901335,0.00402982,0.0
 0738772,0.00264428,-0.02729324,0.00482858,-0.00695175,0.00802380,-0.00
 559260,0.00030695,0.00849281,0.00110741,-0.00155974,-0.00323922,-0.027
 13407,-0.00576740,0.00274637,0.00885929,0.00265462,-0.00126024,0.00899
 026,0.02173963,0.00260514,0.00066682,-0.00521688,0.00021277,0.00039705
 ,0.56153174,0.00255682,-0.04782671,-0.01083271,-0.01250193,-0.00844698
 ,-0.00298885,0.00289774,0.00411906,0.00060193,0.00239250,0.00175958,0.
 00186378,0.00309709,-0.00313063,-0.00649473,-0.00564810,0.00073948,0.0
 0218180,0.00029831,0.00068592,0.00232988,0.00029294,0.00819532,0.00068
 170,0.00291778,-0.00004084,0.00002761,0.00769877,0.40209833,0.00713964
 ,-0.01114046,-0.03879401,0.00540979,-0.00362432,0.00582831,-0.00630755
 ,0.00076155,-0.00414053,-0.00114033,0.00050659,-0.00194690,-0.01484115
 ,0.00256020,-0.00103178,0.00513579,-0.00061624,-0.00167557,0.00149376,
 -0.00112413,-0.00094506,-0.00187529,0.00044926,0.00761309,-0.00116890,
 0.00106088,-0.00096263,0.06557384,-0.35333975,0.68969682,-0.00510544,-
 0.01627445,0.01673278,-0.00108870,0.00848779,-0.00072933,0.00145970,-0
 .00344081,0.00155666,-0.00003877,-0.00308224,-0.00061510,-0.00214483,0
 .00064472,0.00896133,0.00211601,-0.00226375,-0.00512362,-0.00084925,0.
 00013237,-0.00378412,-0.01335774,-0.00113894,-0.00180115,0.00078481,-0
 .00007368,0.00038906,-0.20232495,-0.11962739,0.14767998,0.17241463,-0.
 00603007,0.00393347,0.01176908,0.00184815,0.00331340,0.00048936,-0.000
 77321,-0.00197254,0.00017895,-0.00043021,-0.00092497,-0.00055709,-0.00
 048248,0.00041439,0.00380155,0.00027350,-0.00174310,-0.00260040,-0.001
 01515,0.00019652,-0.00190996,-0.00550870,-0.00181594,-0.00103556,-0.00
 099819,0.00015049,-0.00004079,-0.11312096,-0.20812103,0.20652484,0.113
 61668,0.23699893,0.00322582,0.01093683,-0.00063758,-0.00179080,-0.0020
 4986,-0.00185437,0.00201559,0.00122490,0.00085394,0.00056040,0.0008858
 1,0.00107203,0.00471753,-0.00521645,-0.00644021,-0.00790947,0.00047506
 ,0.00268347,-0.00048587,0.00127407,0.00182293,0.00665125,0.00033016,-0
 .00040830,0.00090382,-0.00028079,0.00048663,0.13917416,0.20541724,-0.3
 3028704,-0.13945044,-0.28967897,0.42512343,-0.00915041,0.00979084,-0.0
 2235497,0.00044260,0.01048370,-0.00231259,0.00194028,-0.00573357,0.003
 04787,-0.00056127,-0.00386593,-0.00037139,-0.00067456,0.00060067,0.009
 31249,0.00114900,-0.00130060,-0.00374260,-0.00058820,0.00062400,-0.003
 79289,-0.01505361,-0.00363157,0.00135830,0.00086477,0.00062973,0.00203
 303,-0.29307310,0.11380190,-0.21009043,0.04827368,0.00796107,-0.006076
 65,0.26556733,0.00060493,0.01033073,0.00755107,0.00567153,-0.00310645,
 0.00516557,-0.00700490,-0.00280061,-0.00267576,-0.00165141,0.00011905,
 -0.00206328,-0.00141881,0.00128275,0.00020183,0.00159779,-0.00011854,-
 0.00041479,0.00012505,-0.00044051,-0.00010412,0.00220382,-0.00104557,-
 0.00049059,-0.00091735,0.00000791,0.00003503,0.11041831,-0.14811212,0.
 15832084,0.02051811,-0.03015605,0.07653387,-0.13005190,0.17354591,-0.0
 0673837,0.00785301,-0.00094603,-0.00249657,0.00549244,-0.00409504,0.00
 423163,-0.00089023,0.00215108,0.00039378,-0.00156334,0.00087293,0.0018
 8987,-0.00035125,0.00227579,-0.00107958,-0.00066431,-0.00068419,-0.000
 05857,0.00025658,-0.00041601,-0.00507790,-0.00156609,-0.00058327,0.005
 87274,-0.00045641,-0.00032342,-0.20463929,0.15911936,-0.32206912,-0.02
 456631,0.07448136,-0.09347463,0.23287088,-0.24155720,0.41667976,-0.014
 93641,0.00506185,-0.00032366,0.00701224,-0.00121695,-0.00078491,-0.001
 36764,0.00013509,0.00013172,-0.00060157,0.00233468,0.00127968,-0.00100
 922,0.00118851,-0.00058775,0.00048782,-0.00044176,0.00008563,0.0009835
 8,-0.00113781,-0.00050463,-0.00021759,-0.00371849,-0.00014280,-0.00001
 758,-0.00007550,-0.00010499,-0.00497004,0.00182357,0.00299085,-0.00013
 915,0.00465957,-0.00153534,0.00086348,-0.00009516,-0.00060230,0.013912
 09,0.00684803,-0.05517443,0.00086907,-0.00346984,0.02065006,0.00079711
 ,0.00622541,-0.01366478,0.00494415,-0.00259975,-0.01425866,-0.00561014
 ,0.00007896,-0.00130611,-0.00048552,-0.00012350,0.00028053,-0.00043381
 ,-0.00001639,-0.00183767,-0.00193833,-0.00206514,-0.00251767,-0.000243
 19,-0.00023930,-0.00265471,0.00273633,0.00068588,-0.00191938,-0.000339
 25,0.00250158,-0.00027357,0.00014813,0.00069166,0.00049349,-0.00015392
 ,-0.00851759,0.07218292,-0.00137502,0.00114995,-0.01456587,-0.00053889
 ,-0.00021308,0.00650014,0.00078556,-0.00103711,-0.00057818,0.00046573,
 0.00141347,-0.00057470,-0.00241118,-0.00103822,-0.00374663,0.00077330,
 -0.00008420,0.00057595,0.00141019,-0.00399605,0.00063666,-0.00007391,-
 0.00023256,-0.00001085,-0.00038433,0.00482053,-0.00130532,0.00038084,0
 .00143274,-0.00128558,0.00075027,-0.00142236,0.00105969,0.00011895,-0.
 00050248,0.00061214,0.00009849,-0.00029064,0.01268256\\-0.00001865,-0.
 00000626,-0.00003389,-0.00000749,0.00004741,0.00005133,-0.00001534,0.0
 0001651,0.00005500,-0.00002153,-0.00000866,0.00005129,-0.00001014,-0.0
 0002787,-0.00001338,0.00000040,-0.00005783,0.00001383,0.00001359,-0.00
 004965,-0.00002259,0.00000715,0.00003859,-0.00000688,0.00000685,0.0000
 6895,0.00001067,0.00001467,-0.00001231,0.00000744,0.00000675,-0.000022
 33,-0.00003823,0.00000805,0.00001507,-0.00000275,0.00001568,-0.0000016
 2,-0.00007185\\\@


 Once you get people laughing, they're
 listening and you can tell them almost anything.
                                 -- Herb Gardner
 Job cpu time:       0 days  0 hours 22 minutes 27.2 seconds.
 File lengths (MBytes):  RWF=    154 Int=      0 D2E=      0 Chk=      8 Scr=      1
 Normal termination of Gaussian 09 at Wed Aug 18 10:28:23 2021.
