 Entering Gaussian System, Link 0=g09
 Input=estrutura68_D2O.com
 Output=estrutura68_D2O.log
 Initial command:
 /scr/programs/g09/l1.exe /scr/guest/Gau-23704.inp -scrdir=/scr/guest/
 Entering Link 1 = /scr/programs/g09/l1.exe PID=     23705.
  
 Copyright (c) 1988,1990,1992,1993,1995,1998,2003,2009, Gaussian, Inc.
                  All Rights Reserved.
  
 This is part of the Gaussian(R) 09 program.  It is based on
 the Gaussian(R) 03 system (copyright 2003, Gaussian, Inc.),
 the Gaussian(R) 98 system (copyright 1998, Gaussian, Inc.),
 the Gaussian(R) 94 system (copyright 1995, Gaussian, Inc.),
 the Gaussian 92(TM) system (copyright 1992, Gaussian, Inc.),
 the Gaussian 90(TM) system (copyright 1990, Gaussian, Inc.),
 the Gaussian 88(TM) system (copyright 1988, Gaussian, Inc.),
 the Gaussian 86(TM) system (copyright 1986, Carnegie Mellon
 University), and the Gaussian 82(TM) system (copyright 1983,
 Carnegie Mellon University). Gaussian is a federally registered
 trademark of Gaussian, Inc.
  
 This software contains proprietary and confidential information,
 including trade secrets, belonging to Gaussian, Inc.
  
 This software is provided under written license and may be
 used, copied, transmitted, or stored only in accord with that
 written license.
  
 The following legend is applicable only to US Government
 contracts under FAR:
  
                    RESTRICTED RIGHTS LEGEND
  
 Use, reproduction and disclosure by the US Government is
 subject to restrictions as set forth in subparagraphs (a)
 and (c) of the Commercial Computer Software - Restricted
 Rights clause in FAR 52.227-19.
  
 Gaussian, Inc.
 340 Quinnipiac St., Bldg. 40, Wallingford CT 06492
  
  
 ---------------------------------------------------------------
 Warning -- This program may not be used in any manner that
 competes with the business of Gaussian, Inc. or will provide
 assistance to any competitor of Gaussian, Inc.  The licensee
 of this program is prohibited from giving any competitor of
 Gaussian, Inc. access to this program.  By using this program,
 the user acknowledges that Gaussian, Inc. is engaged in the
 business of creating and licensing software in the field of
 computational chemistry and represents and warrants to the
 licensee that it is not a competitor of Gaussian, Inc. and that
 it will not use this program in any manner prohibited above.
 ---------------------------------------------------------------
  

 Cite this work as:
 Gaussian 09, Revision A.02,
 M. J. Frisch, G. W. Trucks, H. B. Schlegel, G. E. Scuseria, 
 M. A. Robb, J. R. Cheeseman, G. Scalmani, V. Barone, B. Mennucci, 
 G. A. Petersson, H. Nakatsuji, M. Caricato, X. Li, H. P. Hratchian, 
 A. F. Izmaylov, J. Bloino, G. Zheng, J. L. Sonnenberg, M. Hada, 
 M. Ehara, K. Toyota, R. Fukuda, J. Hasegawa, M. Ishida, T. Nakajima, 
 Y. Honda, O. Kitao, H. Nakai, T. Vreven, J. A. Montgomery, Jr., 
 J. E. Peralta, F. Ogliaro, M. Bearpark, J. J. Heyd, E. Brothers, 
 K. N. Kudin, V. N. Staroverov, R. Kobayashi, J. Normand, 
 K. Raghavachari, A. Rendell, J. C. Burant, S. S. Iyengar, J. Tomasi, 
 M. Cossi, N. Rega, J. M. Millam, M. Klene, J. E. Knox, J. B. Cross, 
 V. Bakken, C. Adamo, J. Jaramillo, R. Gomperts, R. E. Stratmann, 
 O. Yazyev, A. J. Austin, R. Cammi, C. Pomelli, J. W. Ochterski, 
 R. L. Martin, K. Morokuma, V. G. Zakrzewski, G. A. Voth, 
 P. Salvador, J. J. Dannenberg, S. Dapprich, A. D. Daniels, 
 O. Farkas, J. B. Foresman, J. V. Ortiz, J. Cioslowski, 
 and D. J. Fox, Gaussian, Inc., Wallingford CT, 2009.
 
 ******************************************
 Gaussian 09:  EM64L-G09RevA.02 11-Jun-2009
                 1-Dec-2021 
 ******************************************
 %mem=30gb
 %nproc=24
 Will use up to   24 processors via shared memory.
 ------------------------------------------------------------
 #b3lyp/gen pseudo=read opt freq=noraman scrf=(solvent=water)
 ------------------------------------------------------------
 1/14=-1,18=20,19=15,26=3,38=1/1,3;
 2/9=110,12=2,17=6,18=5,40=1/2;
 3/5=7,11=2,16=1,17=8,25=1,30=1,70=2201,71=1,72=1,74=-5/1,2,3;
 4//1;
 5/5=2,38=5,53=1/2;
 6/7=2,8=2,9=2,10=2,28=1/1;
 7//1,2,3,16;
 1/14=-1,18=20,19=15/3(2);
 2/9=110/2;
 99//99;
 2/9=110/2;
 3/5=7,6=1,11=2,16=1,17=8,25=1,30=1,70=2205,71=1,72=1,74=-5,82=7/1,2,3;
 4/5=5,16=3/1;
 5/5=2,38=5,53=1/2;
 7//1,2,3,16;
 1/14=-1,18=20,19=15/3(-5);
 2/9=110/2;
 6/7=2,8=2,9=2,10=2,19=2,28=1/1;
 99/9=1/99;
 ------------
 Estrutura 68
 ------------
 Symbolic Z-matrix:
 Charge = -2 Multiplicity = 1
 Pt                   -0.31955   0.33835   0. 
 N                     1.67045   0.33835   0. 
 O                     2.12378   1.35457  -0.7819 
 O                     2.12378   0.50738   1.27103 
 N                    -0.31955   2.32835   0. 
 N                    -2.30955   0.33835   0. 
 O                    -2.76288  -0.04279   1.22426 
 O                    -2.76288   1.58916  -0.28206 
 O                     0.38494   2.78168   1.07135 
 O                     0.25602   2.78168  -1.14578 
 N                    -0.31955   0.33835  -1.99 
 O                     0.52851  -0.62336  -2.44333 
 O                    -1.57644   0.08476  -2.44333 
 N                    -0.31955   0.33835   1.99 
 O                    -1.0271   -0.73098   2.44333 
 O                    -0.89184   1.48576   2.44333 
 N                    -0.31955  -1.65165   0. 
 O                     0.94992  -2.10499  -0.18036 
 O                    -1.11048  -2.10499  -1.00922 
 

 GradGradGradGradGradGradGradGradGradGradGradGradGradGradGradGradGradGrad
 Berny optimization.
 Initialization pass.
                           ----------------------------
                           !    Initial Parameters    !
                           ! (Angstroms and Degrees)  !
 --------------------------                            --------------------------
 ! Name  Definition              Value          Derivative Info.                !
 --------------------------------------------------------------------------------
 ! R1    R(1,2)                  1.99           estimate D2E/DX2                !
 ! R2    R(1,5)                  1.99           estimate D2E/DX2                !
 ! R3    R(1,6)                  1.99           estimate D2E/DX2                !
 ! R4    R(1,11)                 1.99           estimate D2E/DX2                !
 ! R5    R(1,14)                 1.99           estimate D2E/DX2                !
 ! R6    R(1,17)                 1.99           estimate D2E/DX2                !
 ! R7    R(2,3)                  1.36           estimate D2E/DX2                !
 ! R8    R(2,4)                  1.36           estimate D2E/DX2                !
 ! R9    R(5,9)                  1.36           estimate D2E/DX2                !
 ! R10   R(5,10)                 1.36           estimate D2E/DX2                !
 ! R11   R(6,7)                  1.36           estimate D2E/DX2                !
 ! R12   R(6,8)                  1.36           estimate D2E/DX2                !
 ! R13   R(11,12)                1.36           estimate D2E/DX2                !
 ! R14   R(11,13)                1.36           estimate D2E/DX2                !
 ! R15   R(14,15)                1.36           estimate D2E/DX2                !
 ! R16   R(14,16)                1.36           estimate D2E/DX2                !
 ! R17   R(17,18)                1.36           estimate D2E/DX2                !
 ! R18   R(17,19)                1.36           estimate D2E/DX2                !
 ! A1    A(2,1,5)               90.0            estimate D2E/DX2                !
 ! A2    A(2,1,11)              90.0            estimate D2E/DX2                !
 ! A3    A(2,1,14)              90.0            estimate D2E/DX2                !
 ! A4    A(2,1,17)              90.0            estimate D2E/DX2                !
 ! A5    A(5,1,6)               90.0            estimate D2E/DX2                !
 ! A6    A(5,1,11)              90.0            estimate D2E/DX2                !
 ! A7    A(5,1,14)              90.0            estimate D2E/DX2                !
 ! A8    A(6,1,11)              90.0            estimate D2E/DX2                !
 ! A9    A(6,1,14)              90.0            estimate D2E/DX2                !
 ! A10   A(6,1,17)              90.0            estimate D2E/DX2                !
 ! A11   A(11,1,17)             90.0            estimate D2E/DX2                !
 ! A12   A(14,1,17)             90.0            estimate D2E/DX2                !
 ! A13   A(1,2,3)              109.4712         estimate D2E/DX2                !
 ! A14   A(1,2,4)              109.4712         estimate D2E/DX2                !
 ! A15   A(3,2,4)              109.4713         estimate D2E/DX2                !
 ! A16   A(1,5,9)              109.4712         estimate D2E/DX2                !
 ! A17   A(1,5,10)             109.4712         estimate D2E/DX2                !
 ! A18   A(9,5,10)             109.4713         estimate D2E/DX2                !
 ! A19   A(1,6,7)              109.4712         estimate D2E/DX2                !
 ! A20   A(1,6,8)              109.4712         estimate D2E/DX2                !
 ! A21   A(7,6,8)              109.4713         estimate D2E/DX2                !
 ! A22   A(1,11,12)            109.4712         estimate D2E/DX2                !
 ! A23   A(1,11,13)            109.4712         estimate D2E/DX2                !
 ! A24   A(12,11,13)           109.4713         estimate D2E/DX2                !
 ! A25   A(1,14,15)            109.4712         estimate D2E/DX2                !
 ! A26   A(1,14,16)            109.4712         estimate D2E/DX2                !
 ! A27   A(15,14,16)           109.4713         estimate D2E/DX2                !
 ! A28   A(1,17,18)            109.4712         estimate D2E/DX2                !
 ! A29   A(1,17,19)            109.4712         estimate D2E/DX2                !
 ! A30   A(18,17,19)           109.4713         estimate D2E/DX2                !
 ! D1    D(5,1,2,3)            -37.5752         estimate D2E/DX2                !
 ! D2    D(5,1,2,4)             82.4248         estimate D2E/DX2                !
 ! D3    D(11,1,2,3)            52.4248         estimate D2E/DX2                !
 ! D4    D(11,1,2,4)           172.4248         estimate D2E/DX2                !
 ! D5    D(14,1,2,3)          -127.5752         estimate D2E/DX2                !
 ! D6    D(14,1,2,4)            -7.5752         estimate D2E/DX2                !
 ! D7    D(17,1,2,3)           142.4248         estimate D2E/DX2                !
 ! D8    D(17,1,2,4)           -97.5752         estimate D2E/DX2                !
 ! D9    D(3,2,6,7)           -144.8676         estimate D2E/DX2                !
 ! D10   D(3,2,6,8)            -24.8676         estimate D2E/DX2                !
 ! D11   D(4,2,6,7)            -24.8676         estimate D2E/DX2                !
 ! D12   D(4,2,6,8)             95.1324         estimate D2E/DX2                !
 ! D13   D(2,1,5,9)            -56.6723         estimate D2E/DX2                !
 ! D14   D(2,1,5,10)            63.3277         estimate D2E/DX2                !
 ! D15   D(6,1,5,9)            123.3277         estimate D2E/DX2                !
 ! D16   D(6,1,5,10)          -116.6723         estimate D2E/DX2                !
 ! D17   D(11,1,5,9)          -146.6723         estimate D2E/DX2                !
 ! D18   D(11,1,5,10)          -26.6723         estimate D2E/DX2                !
 ! D19   D(14,1,5,9)            33.3277         estimate D2E/DX2                !
 ! D20   D(14,1,5,10)          153.3277         estimate D2E/DX2                !
 ! D21   D(9,5,17,18)          -64.7584         estimate D2E/DX2                !
 ! D22   D(9,5,17,19)          175.2416         estimate D2E/DX2                !
 ! D23   D(10,5,17,18)          55.2416         estimate D2E/DX2                !
 ! D24   D(10,5,17,19)         -64.7584         estimate D2E/DX2                !
 ! D25   D(5,1,6,7)           -107.2924         estimate D2E/DX2                !
 ! D26   D(5,1,6,8)             12.7076         estimate D2E/DX2                !
 ! D27   D(11,1,6,7)           162.7076         estimate D2E/DX2                !
 ! D28   D(11,1,6,8)           -77.2924         estimate D2E/DX2                !
 ! D29   D(14,1,6,7)           -17.2924         estimate D2E/DX2                !
 ! D30   D(14,1,6,8)           102.7076         estimate D2E/DX2                !
 ! D31   D(17,1,6,7)            72.7076         estimate D2E/DX2                !
 ! D32   D(17,1,6,8)          -167.2924         estimate D2E/DX2                !
 ! D33   D(2,1,11,12)           48.5934         estimate D2E/DX2                !
 ! D34   D(2,1,11,13)          168.5934         estimate D2E/DX2                !
 ! D35   D(5,1,11,12)          138.5934         estimate D2E/DX2                !
 ! D36   D(5,1,11,13)         -101.4066         estimate D2E/DX2                !
 ! D37   D(6,1,11,12)         -131.4066         estimate D2E/DX2                !
 ! D38   D(6,1,11,13)          -11.4066         estimate D2E/DX2                !
 ! D39   D(17,1,11,12)         -41.4066         estimate D2E/DX2                !
 ! D40   D(17,1,11,13)          78.5934         estimate D2E/DX2                !
 ! D41   D(12,11,14,15)        -74.8982         estimate D2E/DX2                !
 ! D42   D(12,11,14,16)        165.1018         estimate D2E/DX2                !
 ! D43   D(13,11,14,15)         45.1018         estimate D2E/DX2                !
 ! D44   D(13,11,14,16)        -74.8982         estimate D2E/DX2                !
 ! D45   D(2,1,14,15)         -123.4916         estimate D2E/DX2                !
 ! D46   D(2,1,14,16)          116.5084         estimate D2E/DX2                !
 ! D47   D(5,1,14,15)          146.5084         estimate D2E/DX2                !
 ! D48   D(5,1,14,16)           26.5084         estimate D2E/DX2                !
 ! D49   D(6,1,14,15)           56.5084         estimate D2E/DX2                !
 ! D50   D(6,1,14,16)          -63.4916         estimate D2E/DX2                !
 ! D51   D(17,1,14,15)         -33.4916         estimate D2E/DX2                !
 ! D52   D(17,1,14,16)        -153.4916         estimate D2E/DX2                !
 ! D53   D(2,1,17,18)           -8.0861         estimate D2E/DX2                !
 ! D54   D(2,1,17,19)         -128.0861         estimate D2E/DX2                !
 ! D55   D(6,1,17,18)          171.9139         estimate D2E/DX2                !
 ! D56   D(6,1,17,19)           51.9139         estimate D2E/DX2                !
 ! D57   D(11,1,17,18)          81.9139         estimate D2E/DX2                !
 ! D58   D(11,1,17,19)         -38.0861         estimate D2E/DX2                !
 ! D59   D(14,1,17,18)         -98.0861         estimate D2E/DX2                !
 ! D60   D(14,1,17,19)         141.9139         estimate D2E/DX2                !
 --------------------------------------------------------------------------------
 Trust Radius=3.00D-01 FncErr=1.00D-07 GrdErr=1.00D-06
 Number of steps in this run= 114 maximum allowed number of steps= 114.
 GradGradGradGradGradGradGradGradGradGradGradGradGradGradGradGradGradGrad

                          Input orientation:                          
 ---------------------------------------------------------------------
 Center     Atomic      Atomic             Coordinates (Angstroms)
 Number     Number       Type             X           Y           Z
 ---------------------------------------------------------------------
      1         78           0       -0.319549    0.338346    0.000000
      2          7           0        1.670451    0.338346    0.000000
      3          8           0        2.123784    1.354574   -0.781901
      4          8           0        2.123784    0.507377    1.271030
      5          7           0       -0.319549    2.328346    0.000000
      6          7           0       -2.309549    0.338346    0.000000
      7          8           0       -2.762882   -0.042792    1.224264
      8          8           0       -2.762882    1.589159   -0.282057
      9          8           0        0.384937    2.781679    1.071349
     10          8           0        0.256023    2.781679   -1.145778
     11          7           0       -0.319549    0.338346   -1.990000
     12          8           0        0.528510   -0.623364   -2.443333
     13          8           0       -1.576443    0.084760   -2.443333
     14          7           0       -0.319549    0.338346    1.990000
     15          8           0       -1.027096   -0.730984    2.443333
     16          8           0       -0.891841    1.485765    2.443333
     17          7           0       -0.319549   -1.651654    0.000000
     18          8           0        0.949924   -2.104987   -0.180358
     19          8           0       -1.110480   -2.104987   -1.009216
 ---------------------------------------------------------------------
                    Distance matrix (angstroms):
                    1          2          3          4          5
     1  Pt   0.000000
     2  N    1.990000   0.000000
     3  O    2.759341   1.360000   0.000000
     4  O    2.759341   1.360000   2.220871   0.000000
     5  N    1.990000   2.814285   2.743989   3.301715   0.000000
     6  N    1.990000   3.980000   4.615033   4.615033   2.814285
     7  O    2.759341   4.615033   5.464141   4.917761   3.618148
     8  O    2.759341   4.615033   4.917761   5.240404   2.568235
     9  O    2.759341   2.961454   2.914576   2.869827   1.360000
    10  O    2.759341   3.046849   2.378564   3.808141   1.360000
    11  N    1.990000   2.814285   2.908969   4.078329   2.814285
    12  O    2.759341   2.863353   3.036033   4.197615   3.924496
    13  O    2.759341   4.071425   4.250231   5.259922   3.547300
    14  N    1.990000   2.814285   3.832236   2.552521   2.814285
    15  O    2.759341   3.793429   4.967870   3.582720   3.978693
    16  O    2.759341   3.721799   4.417391   3.380168   2.647138
    17  N    1.990000   2.814285   3.952044   3.499544   3.980000
    18  O    2.759341   2.553735   3.702481   3.210751   4.615033
    19  O    2.759341   3.836922   4.741382   4.741776   4.615033
                    6          7          8          9         10
     6  N    0.000000
     7  O    1.360000   0.000000
     8  O    1.360000   2.220871   0.000000
     9  O    3.791823   4.231995   3.628027   0.000000
    10  O    3.723552   4.765346   3.358854   2.220871   0.000000
    11  N    2.814285   4.055445   3.232874   3.979703   2.648371
    12  O    3.866438   4.962015   4.516595   4.895704   3.654068
    13  O    2.563518   3.856835   2.888246   4.844933   3.509267
    14  N    2.814285   2.588724   3.563236   2.703719   4.016747
    15  O    2.959396   2.229952   3.977910   4.026782   5.183330
    16  O    3.048990   2.706179   3.307451   2.278573   3.984809
    17  N    2.814285   3.171299   4.068452   4.615033   4.615033
    18  O    4.077569   4.473314   5.238509   5.075971   5.029218
    19  O    2.902785   3.459988   4.111679   5.517656   5.075971
                   11         12         13         14         15
    11  N    0.000000
    12  O    1.360000   0.000000
    13  O    1.360000   2.220871   0.000000
    14  N    3.980000   4.615033   4.615033   0.000000
    15  O    4.615033   5.129425   4.984649   1.360000   0.000000
    16  O    4.615033   5.508659   5.129425   1.360000   2.220871
    17  N    2.814285   2.783246   3.250353   2.814285   2.705205
    18  O    3.294881   2.737490   4.037150   3.505979   3.560934
    19  O    2.749070   2.634044   2.658723   3.948512   3.716844
                   16         17         18         19
    16  O    0.000000
    17  N    4.017561   0.000000
    18  O    4.813455   1.360000   0.000000
    19  O    4.986120   1.360000   2.220871   0.000000
 Stoichiometry    N6O12Pt(2-)
 Framework group  C1[X(N6O12Pt)]
 Deg. of freedom    51
 Full point group                 C1      NOp   1
 Largest Abelian subgroup         C1      NOp   1
 Largest concise Abelian subgroup C1      NOp   1
                         Standard orientation:                         
 ---------------------------------------------------------------------
 Center     Atomic      Atomic             Coordinates (Angstroms)
 Number     Number       Type             X           Y           Z
 ---------------------------------------------------------------------
      1         78           0       -0.025891   -0.015828   -0.016721
      2          7           0       -0.226953    1.693650   -1.015399
      3          8           0       -0.236509    2.732786   -0.138071
      4          8           0        0.813427    1.839144   -1.879136
      5          7           0        1.225505    0.871768    1.250671
      6          7           0        0.175172   -1.725306    0.981958
      7          8           0        0.925135   -2.592311    0.250208
      8          8           0        0.790089   -1.485974    2.171158
      9          8           0        2.265347    1.409985    0.558826
     10          8           0        0.569099    1.856263    1.921120
     11          7           0       -1.560063    0.484130    1.147950
     12          8           0       -2.600004    0.897585    0.375177
     13          8           0       -1.942028   -0.594798    1.882535
     14          7           0        1.508282   -0.515786   -1.181391
     15          8           0        1.256823   -1.714438   -1.772663
     16          8           0        2.637142   -0.609517   -0.428737
     17          7           0       -1.277286   -0.903425   -1.284113
     18          8           0       -1.829669    0.030209   -2.104358
     19          8           0       -2.260493   -1.531510   -0.585249
 ---------------------------------------------------------------------
 Rotational constants (GHZ):      0.4512614      0.4318070      0.3896468
 General basis read from cards:  (5D, 7F)
 ======================================================================================================
                                       Pseudopotential Parameters
 ======================================================================================================
  Center     Atomic      Valence      Angular      Power
  Number     Number     Electrons     Momentum     of R      Exponent        Coefficient   SO-Coeffient
 ======================================================================================================
    1         78           18
                                      G and up 
                                                     1      728.9394056       -0.16192680    0.00000000
                                                     2      320.6567800    -1320.28738520    0.00000000
                                                     2       52.8680174     -298.31781350    0.00000000
                                                     2       12.0280128      -87.58370650    0.00000000
                                                     2        3.5238913       -8.14932740    0.00000000
                                      S - G
                                                     0      409.4437358        2.73342180    0.00000000
                                                     1      274.5419231       59.70243290    0.00000000
                                                     2      127.5658570      891.45895500    0.00000000
                                                     2       32.9036631      368.44676560    0.00000000
                                                     2        5.0593880      238.02630900    0.00000000
                                                     2        4.1506556     -107.05564540    0.00000000
                                      P - G
                                                     0      466.1728892        1.88785680    0.00000000
                                                     1      120.7888259       76.01386290    0.00000000
                                                     2       36.4118791      343.55111160    0.00000000
                                                     2        5.6985408      119.49117860    0.00000000
                                      D - G
                                                     0      249.5650763        2.93436780    0.00000000
                                                     1      126.6678585       59.33065710    0.00000000
                                                     2       63.1430586      452.44451940    0.00000000
                                                     2       17.9059470      210.47694790    0.00000000
                                                     2        4.2239373       58.62541120    0.00000000
                                      F - G
                                                     0      121.8158799        3.95342530    0.00000000
                                                     1       60.8757030       53.85551820    0.00000000
                                                     2       31.4767147      247.43051330    0.00000000
                                                     2        9.8811751      127.81879760    0.00000000
                                                     2        2.7319874       15.37720460    0.00000000
    2          7
                                   No pseudopotential on this center.
    3          8
                                   No pseudopotential on this center.
    4          8
                                   No pseudopotential on this center.
    5          7
                                   No pseudopotential on this center.
    6          7
                                   No pseudopotential on this center.
    7          8
                                   No pseudopotential on this center.
    8          8
                                   No pseudopotential on this center.
    9          8
                                   No pseudopotential on this center.
   10          8
                                   No pseudopotential on this center.
   11          7
                                   No pseudopotential on this center.
   12          8
                                   No pseudopotential on this center.
   13          8
                                   No pseudopotential on this center.
   14          7
                                   No pseudopotential on this center.
   15          8
                                   No pseudopotential on this center.
   16          8
                                   No pseudopotential on this center.
   17          7
                                   No pseudopotential on this center.
   18          8
                                   No pseudopotential on this center.
   19          8
                                   No pseudopotential on this center.
 ======================================================================================================
 There are   274 symmetry adapted basis functions of A   symmetry.
 Integral buffers will be    131072 words long.
 Raffenetti 2 integral format.
 Two-electron integral symmetry is turned on.
   274 basis functions,   493 primitive gaussians,   294 cartesian basis functions
    79 alpha electrons       79 beta electrons
       nuclear repulsion energy      2052.4438484501 Hartrees.
 NAtoms=   19 NActive=   19 NUniq=   19 SFac= 7.50D-01 NAtFMM=   80 NAOKFM=F Big=F
 ------------------------------------------------------------------------------
 Polarizable Continuum Model (PCM)
 =================================
 Model                : PCM.
 Atomic radii         : UFF (Universal Force Field).
 Polarization charges : Total charges.
 Charge compensation  : None.
 Solution method      : Matrix inversion.
 Cavity type          : Scaled VdW (van der Waals Surface) (Alpha=1.100).
 Cavity algorithm     : GePol (No added spheres)
                        Default sphere list used, NSphG=   19.
                        Lebedev-Laikov grids with approx.  5.0 points / Ang**2.
                        Smoothing algorithm: Karplus/York (Gamma=1.0000).
                        Polarization charges: spherical gaussians, with
                                              point-specific exponents (IZeta= 3).
                        Self-potential: point-specific (ISelfS= 7).
                        Self-field    : sphere-specific E.n sum rule (ISelfD= 2).
 1st derivatives      : Analytical E(r).r(x)/FMM algorithm (CHGder, D1EAlg=3).
                        Cavity 1st derivative terms included.
 Solvent              : Water, Eps=  78.355300 Eps(inf)=   1.777849
 ------------------------------------------------------------------------------
 Spheres list:
 ISph  on   Nord    Re0     Alpha      Xe            Ye            Ze
    1  Pt      1    1.377   1.100     -0.025891     -0.015828     -0.016721
    2   N      2    1.830   1.100     -0.226953      1.693650     -1.015399
    3   O      3    1.750   1.100     -0.236509      2.732786     -0.138071
    4   O      4    1.750   1.100      0.813427      1.839144     -1.879136
    5   N      5    1.830   1.100      1.225505      0.871768      1.250671
    6   N      6    1.830   1.100      0.175172     -1.725306      0.981958
    7   O      7    1.750   1.100      0.925135     -2.592311      0.250208
    8   O      8    1.750   1.100      0.790089     -1.485974      2.171158
    9   O      9    1.750   1.100      2.265347      1.409985      0.558826
   10   O     10    1.750   1.100      0.569099      1.856263      1.921120
   11   N     11    1.830   1.100     -1.560063      0.484130      1.147950
   12   O     12    1.750   1.100     -2.600004      0.897585      0.375177
   13   O     13    1.750   1.100     -1.942028     -0.594798      1.882535
   14   N     14    1.830   1.100      1.508282     -0.515786     -1.181391
   15   O     15    1.750   1.100      1.256823     -1.714438     -1.772663
   16   O     16    1.750   1.100      2.637142     -0.609517     -0.428737
   17   N     17    1.830   1.100     -1.277286     -0.903425     -1.284113
   18   O     18    1.750   1.100     -1.829669      0.030209     -2.104358
   19   O     19    1.750   1.100     -2.260493     -1.531510     -0.585249
 ------------------------------------------------------------------------------
 One-electron integrals computed using PRISM.
   1 Symmetry operations used in ECPInt.
 ECPInt:  NShTT=    6786 NPrTT=   27273 LenC2=    6425 LenP2D=   18185.
 LDataN:  DoStor=T MaxTD1= 6 Len=  172
 NBasis=   274 RedAO= T  NBF=   274
 NBsUse=   274 1.00D-06 NBFU=   274
 Defaulting to unpruned grid for atomic number  78.
 Harris functional with IExCor=  402 diagonalized for initial guess.
 ExpMin= 2.90D-02 ExpMax= 2.27D+03 ExpMxC= 3.41D+02 IAcc=3 IRadAn=         0 AccDes= 0.00D+00
 HarFok:  IExCor=  402 AccDes= 0.00D+00 IRadAn=         0 IDoV= 1
 ScaDFX=  1.000000  1.000000  1.000000  1.000000
 Defaulting to unpruned grid for atomic number  78.
 Defaulting to unpruned grid for atomic number  78.
 Defaulting to unpruned grid for atomic number  78.
 Defaulting to unpruned grid for atomic number  78.
 Defaulting to unpruned grid for atomic number  78.
 Defaulting to unpruned grid for atomic number  78.
 Defaulting to unpruned grid for atomic number  78.
 Defaulting to unpruned grid for atomic number  78.
 Defaulting to unpruned grid for atomic number  78.
 Defaulting to unpruned grid for atomic number  78.
 Defaulting to unpruned grid for atomic number  78.
 Defaulting to unpruned grid for atomic number  78.
 Defaulting to unpruned grid for atomic number  78.
 Defaulting to unpruned grid for atomic number  78.
 Defaulting to unpruned grid for atomic number  78.
 Defaulting to unpruned grid for atomic number  78.
 Defaulting to unpruned grid for atomic number  78.
 Defaulting to unpruned grid for atomic number  78.
 Defaulting to unpruned grid for atomic number  78.
 Defaulting to unpruned grid for atomic number  78.
 Defaulting to unpruned grid for atomic number  78.
 Defaulting to unpruned grid for atomic number  78.
 Defaulting to unpruned grid for atomic number  78.
 Defaulting to unpruned grid for atomic number  78.
 FoFCou: FMM=F IPFlag=           0 FMFlag=      100000 FMFlg1=           0
         NFxFlg=           0 DoJE=T BraDBF=F KetDBF=T FulRan=T
         Omega=  0.000000  0.000000  1.000000  0.000000  0.000000 ICntrl=     500 IOpCl=  0
         NMat0=    1 NMatS0=    1 NMatT0=    0 NMatD0=    1 NMtDS0=    0 NMtDT0=    0
         I1Cent=           4 NGrid=           0.
 Petite list used in FoFCou.
 Initial guess orbital symmetries:
       Occupied  (A) (A) (A) (A) (A) (A) (A) (A) (A) (A) (A) (A)
                 (A) (A) (A) (A) (A) (A) (A) (A) (A) (A) (A) (A)
                 (A) (A) (A) (A) (A) (A) (A) (A) (A) (A) (A) (A)
                 (A) (A) (A) (A) (A) (A) (A) (A) (A) (A) (A) (A)
                 (A) (A) (A) (A) (A) (A) (A) (A) (A) (A) (A) (A)
                 (A) (A) (A) (A) (A) (A) (A) (A) (A) (A) (A) (A)
                 (A) (A) (A) (A) (A) (A) (A)
       Virtual   (A) (A) (A) (A) (A) (A) (A) (A) (A) (A) (A) (A)
                 (A) (A) (A) (A) (A) (A) (A) (A) (A) (A) (A) (A)
                 (A) (A) (A) (A) (A) (A) (A) (A) (A) (A) (A) (A)
                 (A) (A) (A) (A) (A) (A) (A) (A) (A) (A) (A) (A)
                 (A) (A) (A) (A) (A) (A) (A) (A) (A) (A) (A) (A)
                 (A) (A) (A) (A) (A) (A) (A) (A) (A) (A) (A) (A)
                 (A) (A) (A) (A) (A) (A) (A) (A) (A) (A) (A) (A)
                 (A) (A) (A) (A) (A) (A) (A) (A) (A) (A) (A) (A)
                 (A) (A) (A) (A) (A) (A) (A) (A) (A) (A) (A) (A)
                 (A) (A) (A) (A) (A) (A) (A) (A) (A) (A) (A) (A)
                 (A) (A) (A) (A) (A) (A) (A) (A) (A) (A) (A) (A)
                 (A) (A) (A) (A) (A) (A) (A) (A) (A) (A) (A) (A)
                 (A) (A) (A) (A) (A) (A) (A) (A) (A) (A) (A) (A)
                 (A) (A) (A) (A) (A) (A) (A) (A) (A) (A) (A) (A)
                 (A) (A) (A) (A) (A) (A) (A) (A) (A) (A) (A) (A)
                 (A) (A) (A) (A) (A) (A) (A) (A) (A) (A) (A) (A)
                 (A) (A) (A)
 The electronic state of the initial guess is 1-A.
 Requested convergence on RMS density matrix=1.00D-08 within 128 cycles.
 Requested convergence on MAX density matrix=1.00D-06.
 Requested convergence on             energy=1.00D-06.
 No special actions if energy rises.
 Keep R1 ints in memory in canonical form, NReq=953581229.
 Defaulting to unpruned grid for atomic number  78.
 Defaulting to unpruned grid for atomic number  78.
 Defaulting to unpruned grid for atomic number  78.
 Defaulting to unpruned grid for atomic number  78.
 Defaulting to unpruned grid for atomic number  78.
 Defaulting to unpruned grid for atomic number  78.
 Defaulting to unpruned grid for atomic number  78.
 Defaulting to unpruned grid for atomic number  78.
 Defaulting to unpruned grid for atomic number  78.
 Defaulting to unpruned grid for atomic number  78.
 Defaulting to unpruned grid for atomic number  78.
 Defaulting to unpruned grid for atomic number  78.
 Defaulting to unpruned grid for atomic number  78.
 Defaulting to unpruned grid for atomic number  78.
 Defaulting to unpruned grid for atomic number  78.
 Defaulting to unpruned grid for atomic number  78.
 Defaulting to unpruned grid for atomic number  78.
 Defaulting to unpruned grid for atomic number  78.
 Defaulting to unpruned grid for atomic number  78.
 Defaulting to unpruned grid for atomic number  78.
 Defaulting to unpruned grid for atomic number  78.
 Defaulting to unpruned grid for atomic number  78.
 Defaulting to unpruned grid for atomic number  78.
 Defaulting to unpruned grid for atomic number  78.
 EnCoef did   100 forward-backward iterations
 EnCoef did   100 forward-backward iterations
 EnCoef did     1 forward-backward iterations
 EnCoef did     4 forward-backward iterations
 EnCoef did     2 forward-backward iterations
 EnCoef did     4 forward-backward iterations
 EnCoef did     3 forward-backward iterations
 Error on total polarization charges =  0.00690
 SCF Done:  E(RB3LYP) =  -1348.72163020     A.U. after   28 cycles
             Convg  =    0.8440D-08             -V/T =  2.0717

 **********************************************************************

            Population analysis using the SCF density.

 **********************************************************************

 Orbital symmetries:
       Occupied  (A) (A) (A) (A) (A) (A) (A) (A) (A) (A) (A) (A)
                 (A) (A) (A) (A) (A) (A) (A) (A) (A) (A) (A) (A)
                 (A) (A) (A) (A) (A) (A) (A) (A) (A) (A) (A) (A)
                 (A) (A) (A) (A) (A) (A) (A) (A) (A) (A) (A) (A)
                 (A) (A) (A) (A) (A) (A) (A) (A) (A) (A) (A) (A)
                 (A) (A) (A) (A) (A) (A) (A) (A) (A) (A) (A) (A)
                 (A) (A) (A) (A) (A) (A) (A)
       Virtual   (A) (A) (A) (A) (A) (A) (A) (A) (A) (A) (A) (A)
                 (A) (A) (A) (A) (A) (A) (A) (A) (A) (A) (A) (A)
                 (A) (A) (A) (A) (A) (A) (A) (A) (A) (A) (A) (A)
                 (A) (A) (A) (A) (A) (A) (A) (A) (A) (A) (A) (A)
                 (A) (A) (A) (A) (A) (A) (A) (A) (A) (A) (A) (A)
                 (A) (A) (A) (A) (A) (A) (A) (A) (A) (A) (A) (A)
                 (A) (A) (A) (A) (A) (A) (A) (A) (A) (A) (A) (A)
                 (A) (A) (A) (A) (A) (A) (A) (A) (A) (A) (A) (A)
                 (A) (A) (A) (A) (A) (A) (A) (A) (A) (A) (A) (A)
                 (A) (A) (A) (A) (A) (A) (A) (A) (A) (A) (A) (A)
                 (A) (A) (A) (A) (A) (A) (A) (A) (A) (A) (A) (A)
                 (A) (A) (A) (A) (A) (A) (A) (A) (A) (A) (A) (A)
                 (A) (A) (A) (A) (A) (A) (A) (A) (A) (A) (A) (A)
                 (A) (A) (A) (A) (A) (A) (A) (A) (A) (A) (A) (A)
                 (A) (A) (A) (A) (A) (A) (A) (A) (A) (A) (A) (A)
                 (A) (A) (A) (A) (A) (A) (A) (A) (A) (A) (A) (A)
                 (A) (A) (A)
 The electronic state is 1-A.
 Alpha  occ. eigenvalues --  -19.16884 -19.16671 -19.16634 -19.16445 -19.16421
 Alpha  occ. eigenvalues --  -19.16300 -19.16074 -19.15841 -19.15810 -19.15707
 Alpha  occ. eigenvalues --  -19.15426 -19.15345 -14.51370 -14.51356 -14.51196
 Alpha  occ. eigenvalues --  -14.50906 -14.50612 -14.50487  -4.07172  -2.28873
 Alpha  occ. eigenvalues --   -2.28697  -2.28454  -1.12498  -1.11226  -1.10824
 Alpha  occ. eigenvalues --   -1.10464  -1.10163  -1.09704  -0.96013  -0.95189
 Alpha  occ. eigenvalues --   -0.94866  -0.94546  -0.93839  -0.93821  -0.69878
 Alpha  occ. eigenvalues --   -0.69172  -0.68841  -0.65586  -0.64987  -0.64219
 Alpha  occ. eigenvalues --   -0.54171  -0.53108  -0.52831  -0.51376  -0.50814
 Alpha  occ. eigenvalues --   -0.50286  -0.49607  -0.49336  -0.48841  -0.47607
 Alpha  occ. eigenvalues --   -0.47234  -0.47207  -0.46627  -0.46491  -0.46171
 Alpha  occ. eigenvalues --   -0.43568  -0.42696  -0.42358  -0.37890  -0.37811
 Alpha  occ. eigenvalues --   -0.37276  -0.32559  -0.31900  -0.31625  -0.30420
 Alpha  occ. eigenvalues --   -0.29377  -0.29197  -0.29078  -0.28560  -0.28206
 Alpha  occ. eigenvalues --   -0.28069  -0.27080  -0.26756  -0.26513  -0.26082
 Alpha  occ. eigenvalues --   -0.25950  -0.25574  -0.25120  -0.23405
 Alpha virt. eigenvalues --   -0.16276  -0.15887  -0.15201  -0.11404  -0.11057
 Alpha virt. eigenvalues --   -0.10385  -0.00421  -0.00348   0.06025   0.06591
 Alpha virt. eigenvalues --    0.06976   0.14912   0.16296   0.17137   0.17530
 Alpha virt. eigenvalues --    0.18317   0.18449   0.18788   0.19356   0.19773
 Alpha virt. eigenvalues --    0.19884   0.20153   0.20384   0.20494   0.35598
 Alpha virt. eigenvalues --    0.36307   0.37455   0.50205   0.51486   0.52623
 Alpha virt. eigenvalues --    0.54761   0.60956   0.61451   0.69301   0.69831
 Alpha virt. eigenvalues --    0.70406   0.70876   0.72426   0.74477   0.77724
 Alpha virt. eigenvalues --    0.78204   0.78562   0.79264   0.79606   0.81820
 Alpha virt. eigenvalues --    0.82920   0.84437   0.85138   0.85882   0.87322
 Alpha virt. eigenvalues --    0.88164   0.89418   0.90294   0.91643   0.92621
 Alpha virt. eigenvalues --    0.93069   0.95403   0.96250   0.96804   0.97410
 Alpha virt. eigenvalues --    0.97719   0.99126   1.00000   1.00821   1.01783
 Alpha virt. eigenvalues --    1.02040   1.03076   1.03690   1.06598   1.07624
 Alpha virt. eigenvalues --    1.08564   1.10027   1.11254   1.12832   1.13285
 Alpha virt. eigenvalues --    1.14897   1.16008   1.16945   1.18143   1.18960
 Alpha virt. eigenvalues --    1.19530   1.20354   1.22601   1.24149   1.24292
 Alpha virt. eigenvalues --    1.26625   1.27298   1.27703   1.28291   1.29529
 Alpha virt. eigenvalues --    1.30140   1.31966   1.34152   1.35222   1.40925
 Alpha virt. eigenvalues --    1.42710   1.44379   1.46430   1.50320   1.53996
 Alpha virt. eigenvalues --    1.56181   1.56329   1.60265   1.63119   1.84611
 Alpha virt. eigenvalues --    1.85258   1.86197   1.86671   1.88548   1.88914
 Alpha virt. eigenvalues --    1.93402   1.94822   1.95630   2.01694   2.05481
 Alpha virt. eigenvalues --    2.09776   2.12525   2.13945   2.18497   2.21223
 Alpha virt. eigenvalues --    2.26183   2.26943   2.29412   2.29821   2.30850
 Alpha virt. eigenvalues --    2.31349   2.32355   2.33667   2.34783   2.34869
 Alpha virt. eigenvalues --    2.35274   2.37994   2.39078   2.39887   2.62607
 Alpha virt. eigenvalues --    2.62923   2.63180   2.63699   2.64151   2.64413
 Alpha virt. eigenvalues --    2.64661   2.65080   2.65399   2.65779   2.65975
 Alpha virt. eigenvalues --    2.66209   2.66522   2.67504   2.67639   2.68106
 Alpha virt. eigenvalues --    2.68908   2.70043   2.70842   2.71341   2.72369
 Alpha virt. eigenvalues --    2.73696   2.74731   2.75349   2.75919   2.76421
 Alpha virt. eigenvalues --    2.77344   2.78169   2.82233   2.84336   2.94978
 Alpha virt. eigenvalues --    2.97108   2.97893   2.99158   2.99366   2.99567
 Alpha virt. eigenvalues --    3.00327   3.00421   3.00510   3.01067   3.01589
 Alpha virt. eigenvalues --    3.02384   3.20708   3.22426   3.22655   3.23513
 Alpha virt. eigenvalues --    3.23707   3.24118   3.46891   3.48728   3.49974
 Alpha virt. eigenvalues --    3.51127   3.52112   3.52950   3.66826   3.69245
 Alpha virt. eigenvalues --    3.70997   3.72076   3.73394   3.73726   9.23718
          Condensed to atoms (all electrons):
              1          2          3          4          5          6
     1  Pt  17.391889   0.041528  -0.004721   0.002972   0.027966   0.038422
     2  N    0.041528   6.598289   0.180388   0.174667  -0.017171  -0.005788
     3  O   -0.004721   0.180388   8.166157  -0.091069  -0.016041   0.000131
     4  O    0.002972   0.174667  -0.091069   8.184668  -0.000263   0.000127
     5  N    0.027966  -0.017171  -0.016041  -0.000263   6.594282  -0.000754
     6  N    0.038422  -0.005788   0.000131   0.000127  -0.000754   6.612539
     7  O   -0.001577   0.000126   0.000000  -0.000004   0.000024   0.177992
     8  O    0.004800   0.000128  -0.000003   0.000000  -0.018043   0.167267
     9  O   -0.002153  -0.005189   0.001953  -0.000469   0.193869   0.000185
    10  O   -0.014207  -0.004308  -0.003369   0.000181   0.195044   0.000024
    11  N    0.032137  -0.008623  -0.001994   0.000103  -0.003104  -0.004094
    12  O    0.000850  -0.005412   0.000323   0.000101   0.000103   0.000081
    13  O    0.000454   0.000107   0.000077   0.000001  -0.000290  -0.022023
    14  N    0.030844   0.000953   0.000106  -0.020320  -0.007556  -0.012555
    15  O   -0.015251  -0.000046  -0.000001   0.000021   0.000085  -0.006510
    16  O    0.007950   0.000146   0.000010  -0.000325  -0.021863  -0.004474
    17  N    0.042012  -0.002297   0.000152  -0.000355  -0.005549  -0.006765
    18  O    0.004945  -0.019614   0.000193  -0.000204   0.000112   0.000127
    19  O    0.001706   0.000057   0.000004   0.000001   0.000127  -0.004582
              7          8          9         10         11         12
     1  Pt  -0.001577   0.004800  -0.002153  -0.014207   0.032137   0.000850
     2  N    0.000126   0.000128  -0.005189  -0.004308  -0.008623  -0.005412
     3  O    0.000000  -0.000003   0.001953  -0.003369  -0.001994   0.000323
     4  O   -0.000004   0.000000  -0.000469   0.000181   0.000103   0.000101
     5  N    0.000024  -0.018043   0.193869   0.195044  -0.003104   0.000103
     6  N    0.177992   0.167267   0.000185   0.000024  -0.004094   0.000081
     7  O    8.171476  -0.087472   0.000014  -0.000003   0.000179   0.000001
     8  O   -0.087472   8.177331   0.000034  -0.000258  -0.001486   0.000010
     9  O    0.000014   0.000034   8.154364  -0.090993   0.000054   0.000003
    10  O   -0.000003  -0.000258  -0.090993   8.158918  -0.014118   0.000137
    11  N    0.000179  -0.001486   0.000054  -0.014118   6.590584   0.186139
    12  O    0.000001   0.000010   0.000003   0.000137   0.186139   8.180034
    13  O    0.000273   0.000045   0.000001  -0.000064   0.182894  -0.093399
    14  N   -0.031978   0.000085  -0.015873   0.000119  -0.005684   0.000126
    15  O   -0.010611   0.000046   0.000085   0.000000   0.000138   0.000000
    16  O    0.004015   0.000378  -0.024192   0.000129   0.000166   0.000000
    17  N    0.000156   0.000094   0.000159   0.000128  -0.010550  -0.013460
    18  O    0.000020   0.000001   0.000000  -0.000001  -0.000834   0.001131
    19  O   -0.000070   0.000115   0.000000   0.000000  -0.015914   0.001792
             13         14         15         16         17         18
     1  Pt   0.000454   0.030844  -0.015251   0.007950   0.042012   0.004945
     2  N    0.000107   0.000953  -0.000046   0.000146  -0.002297  -0.019614
     3  O    0.000077   0.000106  -0.000001   0.000010   0.000152   0.000193
     4  O    0.000001  -0.020320   0.000021  -0.000325  -0.000355  -0.000204
     5  N   -0.000290  -0.007556   0.000085  -0.021863  -0.005549   0.000112
     6  N   -0.022023  -0.012555  -0.006510  -0.004474  -0.006765   0.000127
     7  O    0.000273  -0.031978  -0.010611   0.004015   0.000156   0.000020
     8  O    0.000045   0.000085   0.000046   0.000378   0.000094   0.000001
     9  O    0.000001  -0.015873   0.000085  -0.024192   0.000159   0.000000
    10  O   -0.000064   0.000119   0.000000   0.000129   0.000128  -0.000001
    11  N    0.182894  -0.005684   0.000138   0.000166  -0.010550  -0.000834
    12  O   -0.093399   0.000126   0.000000   0.000000  -0.013460   0.001131
    13  O    8.186394   0.000132  -0.000002   0.000000  -0.001665  -0.000004
    14  N    0.000132   6.601576   0.195590   0.187229  -0.003020  -0.000457
    15  O   -0.000002   0.195590   8.152731  -0.092365  -0.011643   0.000006
    16  O    0.000000   0.187229  -0.092365   8.173300   0.000036   0.000003
    17  N   -0.001665  -0.003020  -0.011643   0.000036   6.593439   0.175049
    18  O   -0.000004  -0.000457   0.000006   0.000003   0.175049   8.185344
    19  O    0.000775   0.000067   0.000111   0.000002   0.184343  -0.092620
             19
     1  Pt   0.001706
     2  N    0.000057
     3  O    0.000004
     4  O    0.000001
     5  N    0.000127
     6  N   -0.004582
     7  O   -0.000070
     8  O    0.000115
     9  O    0.000000
    10  O    0.000000
    11  N   -0.015914
    12  O    0.001792
    13  O    0.000775
    14  N    0.000067
    15  O    0.000111
    16  O    0.000002
    17  N    0.184343
    18  O   -0.092620
    19  O    8.174639
 Mulliken atomic charges:
              1
     1  Pt   0.409432
     2  N    0.072059
     3  O   -0.232296
     4  O   -0.249832
     5  N    0.079022
     6  N    0.070653
     7  O   -0.222563
     8  O   -0.243072
     9  O   -0.211850
    10  O   -0.227359
    11  N    0.074008
    12  O   -0.258562
    13  O   -0.253708
    14  N    0.080617
    15  O   -0.212385
    16  O   -0.230144
    17  N    0.059735
    18  O   -0.253200
    19  O   -0.250554
 Sum of Mulliken atomic charges =  -2.00000
 Mulliken charges with hydrogens summed into heavy atoms:
              1
     1  Pt   0.409432
     2  N    0.072059
     3  O   -0.232296
     4  O   -0.249832
     5  N    0.079022
     6  N    0.070653
     7  O   -0.222563
     8  O   -0.243072
     9  O   -0.211850
    10  O   -0.227359
    11  N    0.074008
    12  O   -0.258562
    13  O   -0.253708
    14  N    0.080617
    15  O   -0.212385
    16  O   -0.230144
    17  N    0.059735
    18  O   -0.253200
    19  O   -0.250554
 Sum of Mulliken charges with hydrogens summed into heavy atoms =  -2.00000
 Electronic spatial extent (au):  <R**2>=           3557.2773
 Charge=             -2.0000 electrons
 Dipole moment (field-independent basis, Debye):
    X=              0.5651    Y=             -0.4344    Z=             -0.3694  Tot=              0.8028
 Quadrupole moment (field-independent basis, Debye-Ang):
   XX=           -165.4658   YY=           -159.8002   ZZ=           -151.2386
   XY=             -0.0796   XZ=              0.4457   YZ=              0.6324
 Traceless Quadrupole moment (field-independent basis, Debye-Ang):
   XX=             -6.6309   YY=             -0.9654   ZZ=              7.5963
   XY=             -0.0796   XZ=              0.4457   YZ=              0.6324
 Octapole moment (field-independent basis, Debye-Ang**2):
  XXX=             18.8230  YYY=            -14.0349  ZZZ=             -5.3032  XYY=            -18.9561
  XXY=              7.6291  XXZ=              3.2304  XZZ=              4.9242  YZZ=              1.6474
  YYZ=             -2.0985  XYZ=             -1.9089
 Hexadecapole moment (field-independent basis, Debye-Ang**3):
 XXXX=          -1793.6819 YYYY=          -1626.5728 ZZZZ=          -1302.7312 XXXY=             -8.6797
 XXXZ=              3.8374 YYYX=             10.5260 YYYZ=             -7.4882 ZZZX=             -4.5343
 ZZZY=             21.3982 XXYY=           -562.9511 XXZZ=           -501.6658 YYZZ=           -491.1071
 XXYZ=             -5.8358 YYXZ=              1.8188 ZZXY=             -3.0297
 N-N= 2.052443848450D+03 E-N=-7.292189450344D+03  KE= 1.258512623904D+03
   1 Symmetry operations used in ECPInt.
 ECPInt:  NShTT=    6786 NPrTT=   27273 LenC2=    6425 LenP2D=   18185.
 LDataN:  DoStor=T MaxTD1= 7 Len=  274
 D1PCM: PCM CHGder 1st derivatives, ID1Alg=3 FixD1E=F DoIter=F DoCFld=F I1PDM=0.
 Calling FoFJK, ICntrl=      2127 FMM=F ISym2X=0 I1Cent= 0 IOpClX= 0 NMat=1 NMatS=1 NMatT=0.
 Defaulting to unpruned grid for atomic number  78.
 Defaulting to unpruned grid for atomic number  78.
 Defaulting to unpruned grid for atomic number  78.
 Defaulting to unpruned grid for atomic number  78.
 Defaulting to unpruned grid for atomic number  78.
 Defaulting to unpruned grid for atomic number  78.
 Defaulting to unpruned grid for atomic number  78.
 Defaulting to unpruned grid for atomic number  78.
 Defaulting to unpruned grid for atomic number  78.
 Defaulting to unpruned grid for atomic number  78.
 Defaulting to unpruned grid for atomic number  78.
 Defaulting to unpruned grid for atomic number  78.
 Defaulting to unpruned grid for atomic number  78.
 Defaulting to unpruned grid for atomic number  78.
 Defaulting to unpruned grid for atomic number  78.
 Defaulting to unpruned grid for atomic number  78.
 Defaulting to unpruned grid for atomic number  78.
 Defaulting to unpruned grid for atomic number  78.
 Defaulting to unpruned grid for atomic number  78.
 Defaulting to unpruned grid for atomic number  78.
 Defaulting to unpruned grid for atomic number  78.
 Defaulting to unpruned grid for atomic number  78.
 Defaulting to unpruned grid for atomic number  78.
 Defaulting to unpruned grid for atomic number  78.
 ***** Axes restored to original set *****
 -------------------------------------------------------------------
 Center     Atomic                   Forces (Hartrees/Bohr)
 Number     Number              X              Y              Z
 -------------------------------------------------------------------
      1       78          -0.000182645   -0.018857132   -0.000738452
      2        7           0.103766893    0.174693274    0.070044342
      3        8          -0.017000399   -0.101808826    0.030306043
      4        8          -0.019241798   -0.049732770   -0.085692303
      5        7           0.182297699    0.112165232   -0.009673340
      6        7          -0.106038159    0.125569948    0.134015904
      7        8           0.004992245   -0.005171829   -0.107953363
      8        8           0.023315579   -0.098069784   -0.011429089
      9        8          -0.068704907   -0.012789467   -0.082792079
     10        8          -0.078737977   -0.018080291    0.066220870
     11        7          -0.064197745   -0.167676544   -0.111070526
     12        8          -0.034959787    0.097006037    0.022615529
     13        8           0.087157235    0.054195273    0.018033831
     14        7          -0.173349002    0.008201746    0.111182996
     15        8           0.090415058    0.056421242   -0.017990061
     16        8           0.058164345   -0.088677173   -0.011597824
     17        7           0.069186552   -0.107716362   -0.163654158
     18        8          -0.086277615    0.019200688    0.049929455
     19        8           0.029394427    0.021126739    0.100242226
 -------------------------------------------------------------------
 Cartesian Forces:  Max     0.182297699 RMS     0.083853303

 GradGradGradGradGradGradGradGradGradGradGradGradGradGradGradGradGradGrad
 Berny optimization.
 Internal  Forces:  Max     0.105062478 RMS     0.042081776
 Search for a local minimum.
 Step number   1 out of a maximum of  114
 All quantities printed in internal units (Hartrees-Bohrs-Radians)
 Mixed Optimization -- RFO/linear search
 Second derivative matrix not updated -- first step.
     Eigenvalues ---    0.00230   0.00230   0.00230   0.00230   0.00230
     Eigenvalues ---    0.00230   0.03391   0.03400   0.03403   0.03413
     Eigenvalues ---    0.03416   0.03424   0.08233   0.08254   0.08261
     Eigenvalues ---    0.08388   0.08410   0.08474   0.12615   0.12615
     Eigenvalues ---    0.12615   0.20378   0.20378   0.20378   0.20378
     Eigenvalues ---    0.20378   0.20378   0.25000   0.25000   0.25000
     Eigenvalues ---    0.25000   0.25000   0.25000   0.25000   0.25000
     Eigenvalues ---    0.25000   0.25000   0.25000   0.25000   0.52948
     Eigenvalues ---    0.52948   0.52948   0.52948   0.52948   0.52948
     Eigenvalues ---    0.52948   0.52948   0.52948   0.52948   0.52948
     Eigenvalues ---    0.529481000.000001000.000001000.000001000.00000
     Eigenvalues --- 1000.000001000.000001000.000001000.000001000.00000
     Eigenvalues --- 1000.000001000.000001000.000001000.000001000.00000
     Eigenvalues --- 1000.000001000.000001000.000001000.000001000.00000
     Eigenvalues --- 1000.000001000.000001000.000001000.000001000.00000
     Eigenvalues --- 1000.000001000.000001000.000001000.000001000.00000
     Eigenvalues --- 1000.000001000.000001000.000001000.000001000.00000
     Eigenvalues --- 1000.000001000.000001000.000001000.000001000.00000
     Eigenvalues --- 1000.000001000.000001000.000001000.000001000.00000
     Eigenvalues --- 1000.000001000.000001000.000001000.000001000.00000
     Eigenvalues --- 1000.000001000.000001000.000001000.000001000.00000
     Eigenvalues --- 1000.000001000.000001000.00000
 RFO step:  Lambda=-3.07053874D-01 EMin= 2.30000000D-03
 Linear search not attempted -- first point.
 Maximum step size (   0.300) exceeded in Quadratic search.
    -- Step size scaled by   0.402
 Iteration  1 RMS(Cart)=  0.05363088 RMS(Int)=  0.00103679
 Iteration  2 RMS(Cart)=  0.00140098 RMS(Int)=  0.00036073
 Iteration  3 RMS(Cart)=  0.00000163 RMS(Int)=  0.00036073
 Iteration  4 RMS(Cart)=  0.00000000 RMS(Int)=  0.00036073
 Variable       Old X    -DE/DX   Delta X   Delta X   Delta X     New X
                                 (Linear)    (Quad)   (Total)
    R1        3.76056   0.06753   0.00000   0.05313   0.05313   3.81369
    R2        3.76056   0.08128   0.00000   0.06395   0.06395   3.82450
    R3        3.76056   0.07773   0.00000   0.06115   0.06115   3.82171
    R4        3.76056   0.07042   0.00000   0.05540   0.05540   3.81596
    R5        3.76056   0.08159   0.00000   0.06419   0.06419   3.82474
    R6        3.76056   0.06740   0.00000   0.05302   0.05302   3.81358
    R7        2.57003  -0.09919   0.00000  -0.04765  -0.04765   2.52238
    R8        2.57003  -0.09268   0.00000  -0.04452  -0.04452   2.52550
    R9        2.57003  -0.10506   0.00000  -0.05047  -0.05047   2.51955
   R10        2.57003  -0.09513   0.00000  -0.04570  -0.04570   2.52432
   R11        2.57003  -0.09741   0.00000  -0.04680  -0.04680   2.52323
   R12        2.57003  -0.09557   0.00000  -0.04592  -0.04592   2.52411
   R13        2.57003  -0.09793   0.00000  -0.04705  -0.04705   2.52298
   R14        2.57003  -0.09667   0.00000  -0.04645  -0.04645   2.52358
   R15        2.57003  -0.09739   0.00000  -0.04679  -0.04679   2.52324
   R16        2.57003  -0.10315   0.00000  -0.04956  -0.04956   2.52047
   R17        2.57003  -0.09358   0.00000  -0.04496  -0.04496   2.52507
   R18        2.57003  -0.09851   0.00000  -0.04733  -0.04733   2.52270
    A1        1.57080  -0.01064   0.00000  -0.01070  -0.01062   1.56018
    A2        1.57080   0.00752   0.00000   0.00691   0.00688   1.57767
    A3        1.57080  -0.00292   0.00000  -0.00250  -0.00236   1.56843
    A4        1.57080  -0.00117   0.00000  -0.00115  -0.00113   1.56966
    A5        1.57080  -0.00153   0.00000  -0.00135  -0.00143   1.56936
    A6        1.57080  -0.01783   0.00000  -0.01642  -0.01639   1.55441
    A7        1.57080   0.03838   0.00000   0.03731   0.03728   1.60808
    A8        1.57080  -0.00727   0.00000  -0.00696  -0.00693   1.56387
    A9        1.57080   0.00267   0.00000   0.00254   0.00267   1.57347
   A10        1.57080   0.01334   0.00000   0.01320   0.01319   1.58398
   A11        1.57080  -0.00034   0.00000  -0.00202  -0.00196   1.56883
   A12        1.57080  -0.02020   0.00000  -0.01887  -0.01888   1.55192
   A13        1.91063   0.04041   0.00000   0.03327   0.03267   1.94330
   A14        1.91063   0.02833   0.00000   0.02455   0.02395   1.93458
   A15        1.91063  -0.00682   0.00000   0.00330   0.00220   1.91284
   A16        1.91063   0.05173   0.00000   0.04063   0.04005   1.95068
   A17        1.91063   0.02829   0.00000   0.02372   0.02313   1.93376
   A18        1.91063  -0.01769   0.00000  -0.00615  -0.00721   1.90342
   A19        1.91063   0.06756   0.00000   0.05278   0.05209   1.96273
   A20        1.91063   0.01587   0.00000   0.01549   0.01478   1.92542
   A21        1.91063  -0.01474   0.00000  -0.00256  -0.00382   1.90681
   A22        1.91063   0.02531   0.00000   0.02223   0.02173   1.93236
   A23        1.91063   0.03669   0.00000   0.03044   0.02995   1.94058
   A24        1.91063  -0.00402   0.00000   0.00504   0.00413   1.91476
   A25        1.91063   0.03022   0.00000   0.02528   0.02462   1.93526
   A26        1.91063   0.05287   0.00000   0.04163   0.04098   1.95161
   A27        1.91063  -0.01846   0.00000  -0.00636  -0.00755   1.90309
   A28        1.91063   0.03114   0.00000   0.02652   0.02602   1.93665
   A29        1.91063   0.03031   0.00000   0.02592   0.02541   1.93604
   A30        1.91063  -0.00318   0.00000   0.00581   0.00488   1.91552
    D1       -0.65581   0.00194   0.00000  -0.00137  -0.00160  -0.65741
    D2        1.43858   0.03569   0.00000   0.03808   0.03824   1.47683
    D3        0.91499  -0.01589   0.00000  -0.01778  -0.01806   0.89693
    D4        3.00938   0.01785   0.00000   0.02166   0.02178   3.03116
    D5       -2.22661  -0.03644   0.00000  -0.03868  -0.03890  -2.26551
    D6       -0.13221  -0.00269   0.00000   0.00077   0.00094  -0.13128
    D7        2.48578  -0.01623   0.00000  -0.01981  -0.02003   2.46575
    D8       -1.70301   0.01751   0.00000   0.01964   0.01981  -1.68320
    D9       -2.52842  -0.03082   0.00000  -0.03677  -0.03676  -2.56518
   D10       -0.43402  -0.00037   0.00000  -0.00059  -0.00051  -0.43453
   D11       -0.43402  -0.00055   0.00000  -0.00073  -0.00065  -0.43467
   D12        1.66037   0.02990   0.00000   0.03545   0.03560   1.69597
   D13       -0.98912  -0.00484   0.00000  -0.00547  -0.00563  -0.99475
   D14        1.10528   0.02249   0.00000   0.02641   0.02671   1.13199
   D15        2.15247  -0.00509   0.00000  -0.00542  -0.00578   2.14670
   D16       -2.03632   0.02224   0.00000   0.02645   0.02657  -2.00975
   D17       -2.55991  -0.01236   0.00000  -0.01238  -0.01268  -2.57260
   D18       -0.46552   0.01497   0.00000   0.01950   0.01966  -0.44586
   D19        0.58168  -0.00777   0.00000  -0.00797  -0.00839   0.57328
   D20        2.67607   0.01956   0.00000   0.02391   0.02395   2.70002
   D21       -1.13025   0.00700   0.00000   0.00869   0.00884  -1.12141
   D22        3.05854  -0.02022   0.00000  -0.02395  -0.02368   3.03486
   D23        0.96415   0.03040   0.00000   0.03662   0.03666   1.00081
   D24       -1.13025   0.00318   0.00000   0.00398   0.00414  -1.12610
   D25       -1.87261  -0.03618   0.00000  -0.03873  -0.03897  -1.91158
   D26        0.22179  -0.00314   0.00000  -0.00006   0.00015   0.22194
   D27        2.83978  -0.01834   0.00000  -0.02231  -0.02260   2.81719
   D28       -1.34901   0.01469   0.00000   0.01636   0.01653  -1.33248
   D29       -0.30181   0.00220   0.00000  -0.00142  -0.00170  -0.30351
   D30        1.79259   0.03523   0.00000   0.03725   0.03743   1.83001
   D31        1.26899  -0.01800   0.00000  -0.02029  -0.02054   1.24844
   D32       -2.91980   0.01503   0.00000   0.01838   0.01858  -2.90122
   D33        0.84811  -0.01439   0.00000  -0.01795  -0.01820   0.82991
   D34        2.94251   0.01865   0.00000   0.02047   0.02065   2.96316
   D35        2.41891  -0.02503   0.00000  -0.02865  -0.02894   2.38998
   D36       -1.76988   0.00801   0.00000   0.00978   0.00992  -1.75996
   D37       -2.29348  -0.02656   0.00000  -0.03000  -0.03025  -2.32373
   D38       -0.19908   0.00649   0.00000   0.00843   0.00860  -0.19048
   D39       -0.72268  -0.01322   0.00000  -0.01680  -0.01705  -0.73974
   D40        1.37171   0.01982   0.00000   0.02163   0.02180   1.39351
   D41       -1.30722   0.00563   0.00000   0.00682   0.00703  -1.30019
   D42        2.88157  -0.02162   0.00000  -0.02541  -0.02529   2.85628
   D43        0.78718   0.03227   0.00000   0.03876   0.03883   0.82600
   D44       -1.30722   0.00502   0.00000   0.00653   0.00650  -1.30072
   D45       -2.15533   0.01569   0.00000   0.02036   0.02050  -2.13483
   D46        2.03346  -0.01258   0.00000  -0.01283  -0.01311   2.02035
   D47        2.55705   0.02632   0.00000   0.03106   0.03122   2.58827
   D48        0.46266  -0.00195   0.00000  -0.00213  -0.00239   0.46027
   D49        0.98626   0.02785   0.00000   0.03241   0.03255   1.01881
   D50       -1.10814  -0.00042   0.00000  -0.00078  -0.00106  -1.10919
   D51       -0.58454   0.01451   0.00000   0.01921   0.01941  -0.56512
   D52       -2.67893  -0.01376   0.00000  -0.01398  -0.01420  -2.69313
   D53       -0.14113   0.01122   0.00000   0.01355   0.01374  -0.12739
   D54       -2.23552  -0.02251   0.00000  -0.02568  -0.02591  -2.26144
   D55        3.00046   0.01147   0.00000   0.01351   0.01366   3.01413
   D56        0.90607  -0.02226   0.00000  -0.02572  -0.02599   0.88008
   D57        1.42967   0.01874   0.00000   0.02046   0.02062   1.45029
   D58       -0.66473  -0.01499   0.00000  -0.01877  -0.01904  -0.68376
   D59       -1.71193   0.01414   0.00000   0.01605   0.01608  -1.69584
   D60        2.47686  -0.01959   0.00000  -0.02318  -0.02357   2.45329
         Item               Value     Threshold  Converged?
 Maximum Force            0.105062     0.000450     NO 
 RMS     Force            0.042082     0.000300     NO 
 Maximum Displacement     0.196370     0.001800     NO 
 RMS     Displacement     0.052932     0.001200     NO 
 Predicted change in Energy=-1.124439D-01
 GradGradGradGradGradGradGradGradGradGradGradGradGradGradGradGradGradGrad

                          Input orientation:                          
 ---------------------------------------------------------------------
 Center     Atomic      Atomic             Coordinates (Angstroms)
 Number     Number       Type             X           Y           Z
 ---------------------------------------------------------------------
      1         78           0       -0.320816    0.344115    0.007085
      2          7           0        1.697277    0.351561    0.012885
      3          8           0        2.181724    1.323410   -0.763302
      4          8           0        2.168717    0.493231    1.255360
      5          7           0       -0.306681    2.367567   -0.029888
      6          7           0       -2.343096    0.361032    0.001118
      7          8           0       -2.859825   -0.025779    1.169974
      8          8           0       -2.795822    1.581491   -0.298243
      9          8           0        0.368181    2.876197    1.001382
     10          8           0        0.230502    2.817404   -1.167203
     11          7           0       -0.328886    0.340368   -2.012213
     12          8           0        0.515460   -0.578844   -2.486165
     13          8           0       -1.555369    0.113975   -2.489537
     14          7           0       -0.321706    0.305648    2.030687
     15          8           0       -0.984899   -0.759988    2.486163
     16          8           0       -0.864180    1.409208    2.547248
     17          7           0       -0.311085   -1.673920    0.006833
     18          8           0        0.929324   -2.145947   -0.148192
     19          8           0       -1.100325   -2.154430   -0.956659
 ---------------------------------------------------------------------
                    Distance matrix (angstroms):
                    1          2          3          4          5
     1  Pt   0.000000
     2  N    2.018116   0.000000
     3  O    2.795572   1.334783   0.000000
     4  O    2.788942   1.336439   2.182743   0.000000
     5  N    2.023839   2.842878   2.796483   3.360445   0.000000
     6  N    2.022359   4.040402   4.688764   4.684768   2.859044
     7  O    2.817037   4.716823   5.565526   5.055976   3.699503
     8  O    2.783879   4.668777   5.005882   5.314569   2.624072
     9  O    2.806205   3.019506   2.968872   2.997493   1.333290
    10  O    2.792859   3.102325   2.490465   3.876502   1.335815
    11  N    2.019318   2.864697   2.971416   4.115631   2.835426
    12  O    2.787025   2.916778   3.059945   4.228665   3.923079
    13  O    2.794675   4.110751   4.290511   5.294988   3.561990
    14  N    2.023967   2.854807   3.887078   2.615057   2.915082
    15  O    2.793900   3.814015   4.992702   3.609809   4.070884
    16  O    2.807506   3.755353   4.499404   3.421469   2.805510
    17  N    2.018058   2.852389   3.973813   3.522041   4.041656
    18  O    2.790586   2.617869   3.739425   3.235940   4.681186
    19  O    2.789115   3.878992   4.785875   4.752869   4.683719
                    6          7          8          9         10
     6  N    0.000000
     7  O    1.335236   0.000000
     8  O    1.335702   2.177860   0.000000
     9  O    3.831137   4.343951   3.657349   0.000000
    10  O    3.744616   4.805851   3.382486   2.173746   0.000000
    11  N    2.847977   4.082405   3.250209   3.999761   2.676315
    12  O    3.904009   5.006574   4.518699   4.911414   3.654499
    13  O    2.623912   3.887564   2.914463   4.849374   3.499490
    14  N    2.865001   2.700504   3.629454   2.853618   4.103699
    15  O    3.045790   2.405570   4.063851   4.154184   5.255665
    16  O    3.125482   2.817565   3.443507   2.461802   4.120496
    17  N    2.875783   3.250437   4.106664   4.706814   4.673720
    18  O    4.125042   4.537656   5.271909   5.182502   5.114839
    19  O    2.964686   3.485622   4.155157   5.594430   5.151170
                   11         12         13         14         15
    11  N    0.000000
    12  O    1.335104   0.000000
    13  O    1.335422   2.183654   0.000000
    14  N    4.043055   4.678154   4.689465   0.000000
    15  O    4.677235   5.196916   5.083979   1.335239   0.000000
    16  O    4.713559   5.584890   5.246386   1.333776   2.173411
    17  N    2.852055   2.845594   3.313106   2.831040   2.726972
    18  O    3.352526   2.844857   4.094245   3.510400   3.539062
    19  O    2.816617   2.726283   2.775327   3.947463   3.716291
                   16         17         18         19
    16  O    0.000000
    17  N    4.033026   0.000000
    18  O    4.808448   1.336210   0.000000
    19  O    5.003263   1.334955   2.184757   0.000000
 Stoichiometry    N6O12Pt(2-)
 Framework group  C1[X(N6O12Pt)]
 Deg. of freedom    51
 Full point group                 C1      NOp   1
 Largest Abelian subgroup         C1      NOp   1
 Largest concise Abelian subgroup C1      NOp   1
                         Standard orientation:                         
 ---------------------------------------------------------------------
 Center     Atomic      Atomic             Coordinates (Angstroms)
 Number     Number       Type             X           Y           Z
 ---------------------------------------------------------------------
      1         78           0       -0.018960   -0.016900   -0.016364
      2          7           0       -0.242577    1.685054   -1.077562
      3          8           0       -0.314457    2.750757   -0.277090
      4          8           0        0.763718    1.841527   -1.942984
      5          7           0        1.184284    0.972332    1.275745
      6          7           0        0.219864   -1.710682    1.062526
      7          8           0        0.960117   -2.621123    0.425364
      8          8           0        0.781543   -1.433759    2.242326
      9          8           0        2.225276    1.528149    0.655209
     10          8           0        0.504836    1.922329    1.924020
     11          7           0       -1.603718    0.475731    1.134071
     12          8           0       -2.633242    0.864753    0.378263
     13          8           0       -1.974630   -0.547172    1.908311
     14          7           0        1.544463   -0.538344   -1.191203
     15          8           0        1.328284   -1.719872   -1.774401
     16          8           0        2.685001   -0.595472   -0.502097
     17          7           0       -1.250844   -0.974197   -1.296444
     18          8           0       -1.803269   -0.116774   -2.159642
     19          8           0       -2.208352   -1.629723   -0.636468
 ---------------------------------------------------------------------
 Rotational constants (GHZ):      0.4338670      0.4206563      0.3829938
 Basis read from rwf:  (5D, 7F)
 Pseudo-potential data read from rwf file.
 There are   274 symmetry adapted basis functions of A   symmetry.
 Integral buffers will be    131072 words long.
 Raffenetti 2 integral format.
 Two-electron integral symmetry is turned on.
   274 basis functions,   493 primitive gaussians,   294 cartesian basis functions
    79 alpha electrons       79 beta electrons
       nuclear repulsion energy      2030.6858291398 Hartrees.
 NAtoms=   19 NActive=   19 NUniq=   19 SFac= 7.50D-01 NAtFMM=   80 NAOKFM=F Big=F
 ------------------------------------------------------------------------------
 Polarizable Continuum Model (PCM)
 =================================
 Model                : PCM.
 Atomic radii         : UFF (Universal Force Field).
 Polarization charges : Total charges.
 Charge compensation  : None.
 Solution method      : Matrix inversion.
 Cavity type          : Scaled VdW (van der Waals Surface) (Alpha=1.100).
 Cavity algorithm     : GePol (No added spheres)
                        Default sphere list used, NSphG=   19.
                        Lebedev-Laikov grids with approx.  5.0 points / Ang**2.
                        Smoothing algorithm: Karplus/York (Gamma=1.0000).
                        Polarization charges: spherical gaussians, with
                                              point-specific exponents (IZeta= 3).
                        Self-potential: point-specific (ISelfS= 7).
                        Self-field    : sphere-specific E.n sum rule (ISelfD= 2).
 1st derivatives      : Analytical E(r).r(x)/FMM algorithm (CHGder, D1EAlg=3).
                        Cavity 1st derivative terms included.
 Solvent              : Water, Eps=  78.355300 Eps(inf)=   1.777849
 ------------------------------------------------------------------------------
 Spheres list:
 ISph  on   Nord    Re0     Alpha      Xe            Ye            Ze
    1  Pt      1    1.377   1.100     -0.018960     -0.016900     -0.016364
    2   N      2    1.830   1.100     -0.242577      1.685054     -1.077562
    3   O      3    1.750   1.100     -0.314457      2.750757     -0.277090
    4   O      4    1.750   1.100      0.763718      1.841527     -1.942984
    5   N      5    1.830   1.100      1.184284      0.972332      1.275745
    6   N      6    1.830   1.100      0.219864     -1.710682      1.062526
    7   O      7    1.750   1.100      0.960117     -2.621123      0.425364
    8   O      8    1.750   1.100      0.781543     -1.433759      2.242326
    9   O      9    1.750   1.100      2.225276      1.528149      0.655209
   10   O     10    1.750   1.100      0.504836      1.922329      1.924020
   11   N     11    1.830   1.100     -1.603718      0.475731      1.134071
   12   O     12    1.750   1.100     -2.633242      0.864753      0.378263
   13   O     13    1.750   1.100     -1.974630     -0.547172      1.908311
   14   N     14    1.830   1.100      1.544463     -0.538344     -1.191203
   15   O     15    1.750   1.100      1.328284     -1.719872     -1.774401
   16   O     16    1.750   1.100      2.685001     -0.595472     -0.502097
   17   N     17    1.830   1.100     -1.250844     -0.974197     -1.296444
   18   O     18    1.750   1.100     -1.803269     -0.116774     -2.159642
   19   O     19    1.750   1.100     -2.208352     -1.629723     -0.636468
 ------------------------------------------------------------------------------
 One-electron integrals computed using PRISM.
   1 Symmetry operations used in ECPInt.
 ECPInt:  NShTT=    6786 NPrTT=   27273 LenC2=    6415 LenP2D=   18117.
 LDataN:  DoStor=T MaxTD1= 6 Len=  172
 NBasis=   274 RedAO= T  NBF=   274
 NBsUse=   274 1.00D-06 NBFU=   274
 Defaulting to unpruned grid for atomic number  78.
 Initial guess read from the read-write file.
 B after Tr=     0.000000    0.000000    0.000000
         Rot=    1.000000    0.000000    0.000000    0.000000 Ang=   0.00 deg.
 Initial guess orbital symmetries:
       Occupied  (A) (A) (A) (A) (A) (A) (A) (A) (A) (A) (A) (A)
                 (A) (A) (A) (A) (A) (A) (A) (A) (A) (A) (A) (A)
                 (A) (A) (A) (A) (A) (A) (A) (A) (A) (A) (A) (A)
                 (A) (A) (A) (A) (A) (A) (A) (A) (A) (A) (A) (A)
                 (A) (A) (A) (A) (A) (A) (A) (A) (A) (A) (A) (A)
                 (A) (A) (A) (A) (A) (A) (A) (A) (A) (A) (A) (A)
                 (A) (A) (A) (A) (A) (A) (A)
       Virtual   (A) (A) (A) (A) (A) (A) (A) (A) (A) (A) (A) (A)
                 (A) (A) (A) (A) (A) (A) (A) (A) (A) (A) (A) (A)
                 (A) (A) (A) (A) (A) (A) (A) (A) (A) (A) (A) (A)
                 (A) (A) (A) (A) (A) (A) (A) (A) (A) (A) (A) (A)
                 (A) (A) (A) (A) (A) (A) (A) (A) (A) (A) (A) (A)
                 (A) (A) (A) (A) (A) (A) (A) (A) (A) (A) (A) (A)
                 (A) (A) (A) (A) (A) (A) (A) (A) (A) (A) (A) (A)
                 (A) (A) (A) (A) (A) (A) (A) (A) (A) (A) (A) (A)
                 (A) (A) (A) (A) (A) (A) (A) (A) (A) (A) (A) (A)
                 (A) (A) (A) (A) (A) (A) (A) (A) (A) (A) (A) (A)
                 (A) (A) (A) (A) (A) (A) (A) (A) (A) (A) (A) (A)
                 (A) (A) (A) (A) (A) (A) (A) (A) (A) (A) (A) (A)
                 (A) (A) (A) (A) (A) (A) (A) (A) (A) (A) (A) (A)
                 (A) (A) (A) (A) (A) (A) (A) (A) (A) (A) (A) (A)
                 (A) (A) (A) (A) (A) (A) (A) (A) (A) (A) (A) (A)
                 (A) (A) (A) (A) (A) (A) (A) (A) (A) (A) (A) (A)
                 (A) (A) (A)
 Harris functional with IExCor=  402 diagonalized for initial guess.
 ExpMin= 2.90D-02 ExpMax= 2.27D+03 ExpMxC= 3.41D+02 IAcc=3 IRadAn=         0 AccDes= 0.00D+00
 HarFok:  IExCor=  402 AccDes= 0.00D+00 IRadAn=         0 IDoV= 1
 ScaDFX=  1.000000  1.000000  1.000000  1.000000
 Defaulting to unpruned grid for atomic number  78.
 Defaulting to unpruned grid for atomic number  78.
 Defaulting to unpruned grid for atomic number  78.
 Defaulting to unpruned grid for atomic number  78.
 Defaulting to unpruned grid for atomic number  78.
 Defaulting to unpruned grid for atomic number  78.
 Defaulting to unpruned grid for atomic number  78.
 Defaulting to unpruned grid for atomic number  78.
 Defaulting to unpruned grid for atomic number  78.
 Defaulting to unpruned grid for atomic number  78.
 Defaulting to unpruned grid for atomic number  78.
 Defaulting to unpruned grid for atomic number  78.
 Defaulting to unpruned grid for atomic number  78.
 Defaulting to unpruned grid for atomic number  78.
 Defaulting to unpruned grid for atomic number  78.
 Defaulting to unpruned grid for atomic number  78.
 Defaulting to unpruned grid for atomic number  78.
 Defaulting to unpruned grid for atomic number  78.
 Defaulting to unpruned grid for atomic number  78.
 Defaulting to unpruned grid for atomic number  78.
 Defaulting to unpruned grid for atomic number  78.
 Defaulting to unpruned grid for atomic number  78.
 Defaulting to unpruned grid for atomic number  78.
 Defaulting to unpruned grid for atomic number  78.
 FoFCou: FMM=F IPFlag=           0 FMFlag=      100000 FMFlg1=           0
         NFxFlg=           0 DoJE=T BraDBF=F KetDBF=T FulRan=T
         Omega=  0.000000  0.000000  1.000000  0.000000  0.000000 ICntrl=     500 IOpCl=  0
         NMat0=    1 NMatS0=    1 NMatT0=    0 NMatD0=    1 NMtDS0=    0 NMtDT0=    0
         I1Cent=           4 NGrid=           0.
 Petite list used in FoFCou.
 Requested convergence on RMS density matrix=1.00D-08 within 128 cycles.
 Requested convergence on MAX density matrix=1.00D-06.
 Requested convergence on             energy=1.00D-06.
 No special actions if energy rises.
 Keep R1 ints in memory in canonical form, NReq=953581229.
 Defaulting to unpruned grid for atomic number  78.
 Defaulting to unpruned grid for atomic number  78.
 Defaulting to unpruned grid for atomic number  78.
 Defaulting to unpruned grid for atomic number  78.
 Defaulting to unpruned grid for atomic number  78.
 Defaulting to unpruned grid for atomic number  78.
 Defaulting to unpruned grid for atomic number  78.
 Defaulting to unpruned grid for atomic number  78.
 Defaulting to unpruned grid for atomic number  78.
 Defaulting to unpruned grid for atomic number  78.
 Defaulting to unpruned grid for atomic number  78.
 Defaulting to unpruned grid for atomic number  78.
 Defaulting to unpruned grid for atomic number  78.
 Defaulting to unpruned grid for atomic number  78.
 Defaulting to unpruned grid for atomic number  78.
 Defaulting to unpruned grid for atomic number  78.
 Defaulting to unpruned grid for atomic number  78.
 Defaulting to unpruned grid for atomic number  78.
 Defaulting to unpruned grid for atomic number  78.
 Defaulting to unpruned grid for atomic number  78.
 Defaulting to unpruned grid for atomic number  78.
 Defaulting to unpruned grid for atomic number  78.
 Defaulting to unpruned grid for atomic number  78.
 Defaulting to unpruned grid for atomic number  78.
 Error on total polarization charges =  0.00659
 SCF Done:  E(RB3LYP) =  -1348.83193352     A.U. after   18 cycles
             Convg  =    0.5092D-08             -V/T =  2.0717
   1 Symmetry operations used in ECPInt.
 ECPInt:  NShTT=    6786 NPrTT=   27273 LenC2=    6415 LenP2D=   18117.
 LDataN:  DoStor=T MaxTD1= 7 Len=  274
[...]
 7651,-0.27540837,0.13610802,-0.18781142,0.05458893,-0.00170263,0.00345
 572,0.23400408,0.00154902,0.00737760,0.00967665,0.13325629,-0.18419540
 ,0.18781464,0.01144478,-0.04093178,0.07734768,-0.14631941,0.22157569,-
 0.00123745,0.00977096,0.00068972,-0.18417027,0.18705984,-0.29923623,-0
 .01414227,0.07723609,-0.08641781,0.19934392,-0.27265695,0.38613695,-0.
 04412002,-0.00009304,0.01015520,-0.00243218,0.00741821,-0.00293601,-0.
 00138583,-0.00263587,0.00083940,-0.00070425,-0.00029498,0.00057979,0.5
 9141178,-0.00218969,-0.07074640,-0.00024126,0.02349764,-0.00393984,-0.
 00165262,-0.00791214,-0.00303480,0.00275030,-0.00739705,0.00122205,-0.
 00160194,-0.03314903,0.59011600,0.01007074,-0.00070000,-0.04829071,0.0
 0273771,0.00217171,-0.00288824,-0.00124836,-0.00374183,0.00137669,-0.0
 0129926,0.00037504,0.00045196,0.37054808,-0.03138113,0.44734314,-0.070
 17128,0.00036018,0.00012541,0.00877730,-0.00093618,0.00002429,0.005906
 45,0.00178698,-0.00200231,0.00731172,-0.00079188,0.00190108,-0.0019222
 3,-0.02017269,0.00133277,0.58569258,-0.00002410,-0.04895706,-0.0099465
 4,-0.00086748,0.02092320,0.00346053,0.00310136,-0.00269052,-0.00214600
 ,-0.00193600,-0.00348272,-0.00178697,-0.00792102,-0.00138856,-0.002825
 36,-0.01302913,0.42096249,-0.00165671,-0.00981097,-0.04282411,-0.00009
 239,0.00346385,0.01903300,-0.00301973,-0.00187571,-0.00189028,0.003580
 43,-0.00199194,-0.00204990,0.00498902,-0.00305204,0.00481120,0.0294540
 8,-0.36560596,0.62163924,-0.00305725,-0.01492554,0.01846334,0.00588886
 ,0.00310294,-0.00295728,-0.00792283,-0.00321469,0.00388956,-0.01121780
 ,0.00212666,-0.00359959,0.00014410,0.00616751,-0.00023691,-0.23926061,
 -0.12795016,0.16296069,0.20028902,-0.00090153,0.00538888,0.01016021,0.
 00178673,-0.00267498,-0.00186719,-0.00325398,-0.00059100,0.00175512,-0
 .00367807,0.00153752,-0.00101594,0.00134660,0.00116628,0.00061781,-0.1
 2329325,-0.19431795,0.19069354,0.12910160,0.23393347,0.00125034,0.0099
 4229,-0.00015237,-0.00198966,-0.00215087,-0.00192024,0.00392350,0.0017
 4739,-0.00134459,0.00445166,-0.00067488,0.00214941,-0.00176029,-0.0007
 5508,-0.00156239,0.15516632,0.18961433,-0.29124321,-0.16280865,-0.2744
 9909,0.37780106,-0.00153005,0.01495962,-0.02012138,0.00727626,-0.00200
 100,0.00359963,-0.01129238,-0.00363706,0.00445470,-0.01005023,0.002450
 21,-0.00393550,0.00109622,0.00679663,-0.00097167,-0.27786139,0.1379525
 9,-0.18784516,0.05458520,-0.00113535,0.00264436,0.23606722,0.00149262,
 0.00727739,0.00961419,-0.00078726,-0.00345631,-0.00199354,0.00214622,0
 .00152624,-0.00067572,0.00243286,0.00014160,0.00127940,0.00478568,-0.0
 0420148,0.00410117,0.13501783,-0.18568063,0.18761389,0.01213017,-0.041
 87375,0.07763401,-0.14861727,0.22399675,-0.00115374,0.00970505,0.00090
 719,0.00187607,-0.00180367,-0.00206538,-0.00355559,-0.00097559,0.00211
 875,-0.00388201,0.00127325,-0.00092123,-0.00210910,0.00366921,-0.00286
 730,-0.18418534,0.18691968,-0.29576784,-0.01489919,0.07746504,-0.08548
 341,0.19995715,-0.27278871,0.38182596,-0.00049474,-0.00133425,-0.01105
 389,-0.00481389,-0.00113784,0.00444244,0.00259217,0.00448841,-0.001559
 85,0.00146322,0.00002162,-0.00063086,-0.29361983,-0.14544064,-0.201697
 84,0.00143603,0.00143309,-0.00153701,-0.00017710,-0.00014304,0.0005654
 6,-0.00027446,-0.00171137,0.00075052,0.37435093,-0.01778158,-0.0018172
 3,-0.01511188,-0.00733615,-0.00246046,0.00016524,0.00385823,0.00149252
 ,-0.00166820,0.00303057,-0.00009789,0.00032887,-0.15305105,-0.22022366
 ,-0.12400972,0.00603484,-0.00013215,0.00062394,-0.00198907,-0.00011594
 ,0.00029785,-0.00216188,0.00067386,-0.00084163,0.14555669,0.18095670,-
 0.01056801,-0.00047730,0.00453372,-0.00233912,-0.00051907,0.00032678,0
 .00153155,0.00058520,-0.00117768,0.00132373,-0.00060335,0.00037240,-0.
 20258131,-0.11900880,-0.21152781,0.00091421,0.00100735,-0.00165779,-0.
 00036228,-0.00028032,0.00076091,-0.00005518,-0.00156165,0.00084065,0.2
 8754907,0.11944909,0.25725191,0.00276176,0.00102764,-0.00910439,0.0013
 9167,-0.00088326,0.00011121,-0.00014667,0.00056177,0.00029584,0.000143
 63,-0.00030413,0.00022190,-0.26226210,0.18018599,-0.17985657,-0.003993
 15,0.00339516,-0.00548577,0.00051253,-0.00103951,0.00188853,-0.0003230
 7,-0.00553079,0.00304040,-0.07881233,0.02236667,-0.07859661,0.34060419
 ,0.01954232,-0.00298377,0.01616559,-0.00725936,-0.00006071,0.00076539,
 0.00305372,0.00062870,-0.00116854,0.00281809,0.00017137,0.00032961,0.1
 8348359,-0.30039283,0.15274190,0.00675687,0.00165882,0.00096655,-0.002
 57429,-0.00082972,0.00047298,-0.00398012,0.00017149,-0.00110434,0.0055
 2518,0.05320559,0.00427794,-0.20248929,0.25983987,-0.00942433,0.001870
 43,0.00696611,0.00045799,-0.00092018,0.00096636,0.00015551,0.00108315,
 -0.00026585,0.00007697,-0.00022029,-0.00016129,-0.18069488,0.15004281,
 -0.19565546,-0.00265824,0.00122430,-0.00284541,0.00072376,-0.00022644,
 0.00074850,0.00098553,-0.00218881,0.00089820,-0.07818964,0.01802672,-0
 .04750373,0.26670374,-0.16929177,0.24103851,-0.04872899,-0.00957533,0.
 00135549,-0.00211011,0.00195623,-0.00747777,-0.00285151,-0.00041704,0.
 00131367,-0.00051661,-0.00085031,0.00083012,0.00430375,-0.00078990,0.0
 0272330,-0.00316298,-0.00230526,0.00785678,0.00033190,0.00093941,-0.00
 148633,0.00216357,0.00097142,-0.00315116,-0.00149451,0.00005577,-0.000
 63903,-0.00230458,0.00075275,-0.00369098,0.40162439,-0.00968607,-0.042
 46841,0.00016732,-0.00274384,-0.00275374,0.00284538,0.00075370,0.00034
 666,-0.00435840,0.00108020,0.00093290,-0.00004476,-0.00522031,-0.00125
 316,-0.00849683,-0.00180446,0.00450343,-0.00551290,0.00026921,-0.00163
 463,0.00167422,0.00055157,-0.00276094,0.00577865,0.00182277,-0.0000778
 8,0.00142881,0.00207554,0.00099546,0.00521632,-0.35827231,0.63688986,0
 .00104754,-0.00205944,-0.06997119,-0.02341664,-0.00225981,-0.00417625,
 0.00737329,0.00216098,-0.00408061,0.00706147,-0.00052015,0.00176787,0.
 00220182,-0.02061602,-0.00171818,0.02033611,-0.00185996,-0.00034366,-0
 .00615020,-0.00070976,0.00105745,-0.00644969,0.00275341,-0.00482884,0.
 00094970,0.00611208,0.00124089,-0.00310117,0.00698236,-0.00431416,0.01
 500595,-0.05073315,0.58943815,0.00500634,0.01116132,0.00097099,-0.0037
 0304,-0.00371770,0.00260509,0.00156713,0.00045188,-0.00456213,0.000802
 20,0.00108006,-0.00061073,-0.00157996,-0.00100581,-0.00101901,0.001588
 75,0.00046348,-0.00121653,-0.00024551,-0.00026211,0.00013393,-0.000983
 93,-0.00014623,0.00096354,0.00075784,0.00040042,0.00031181,0.00065059,
 0.00016743,0.00144994,-0.19861593,0.20169073,0.11447915,0.23443895,0.0
 1042375,-0.00135043,-0.00086557,0.00324547,0.00136985,-0.00086490,-0.0
 0199955,-0.00110833,0.00183787,-0.00129639,-0.00029007,-0.00034344,0.0
 0169580,0.00129514,0.00161281,-0.00116271,-0.00144858,0.00174485,0.000
 41850,0.00073148,-0.00056922,0.00064165,0.00069807,-0.00199856,-0.0006
 2238,-0.00014137,-0.00019218,-0.00064385,-0.00029912,-0.00183099,0.200
 27713,-0.31227743,-0.14494136,-0.28411489,0.40302097,0.01452221,-0.018
 16104,-0.00156828,0.00764290,0.00073281,-0.00101542,-0.00383381,-0.001
 16580,0.00230147,-0.00293125,-0.00009133,-0.00026279,-0.00034553,0.006
 08879,-0.00007779,-0.00608218,0.00040585,-0.00033396,0.00198897,0.0002
 8717,-0.00006379,0.00246784,-0.00077750,0.00077960,-0.00036040,-0.0019
 6685,-0.00014460,0.00072604,-0.00222820,0.00073001,0.11888876,-0.15262
 665,-0.21473635,-0.11288316,0.14290639,0.17557349,0.00873397,0.0081493
 0,-0.00119583,0.00076853,0.00031630,0.00037622,0.00005943,-0.00052221,
 -0.00006322,0.00031104,-0.00020565,0.00031207,-0.00241613,0.00233448,-
 0.00122553,-0.00342076,0.00380254,-0.00511243,0.00042314,-0.00147818,0
 .00177672,-0.00039641,-0.00161810,0.00564716,0.00066278,-0.00062115,0.
 00025354,0.00215072,-0.00109419,0.00217089,-0.16213010,0.16890186,-0.1
 3010362,-0.03732383,0.07592192,-0.01957957,0.19397998,0.00884794,0.001
 39980,0.00147577,-0.00135656,0.00043365,-0.00068619,0.00024897,0.00036
 762,0.00060790,0.00026041,-0.00016692,-0.00021033,0.00560380,-0.004635
 56,0.00388211,0.00321459,-0.00266250,0.00228619,-0.00070765,0.00076925
 ,-0.00074629,-0.00030719,0.00174046,-0.00379511,-0.00197149,0.00069954
 ,-0.00115681,-0.00326472,0.00099675,-0.00591744,0.16846836,-0.29051134
 ,0.19729119,0.07519876,-0.08852820,0.02452753,-0.25201305,0.37927950,-
 0.01431868,0.02103679,-0.00349960,0.00765216,0.00118200,-0.00029241,-0
 .00322637,-0.00131541,0.00135916,-0.00284824,-0.00006323,0.00006344,-0
 .00069960,0.00680989,0.00177148,-0.00705507,0.00114226,0.00064835,0.00
 225651,0.00004749,-0.00020030,0.00388313,-0.00187069,0.00232644,-0.000
 56837,-0.00256555,-0.00090938,0.00098209,-0.00378885,-0.00021368,-0.13
 272771,0.20065894,-0.30600774,-0.00682142,0.00692788,0.05243732,0.1497
 2791,-0.22206507,0.26593791,-0.04872905,-0.00947179,0.00144927,-0.0032
 5854,-0.00223451,0.00781031,0.00034289,0.00091313,-0.00147401,0.002175
 73,0.00094431,-0.00309024,-0.00298284,-0.00378275,-0.00165669,-0.00211
 489,0.00193315,-0.00736931,-0.00293462,-0.00044065,0.00121162,-0.00051
 883,-0.00084579,0.00080667,0.00129929,0.00143588,0.00386224,0.00045856
 ,0.00159439,-0.00040031,0.02085157,0.00344271,0.00148029,-0.00242780,-
 0.00241617,-0.00351907,-0.00367850,-0.00155879,0.00120833,0.39756257,-
 0.00962558,-0.04229327,0.00013262,-0.00174874,0.00447820,-0.00557679,0
 .00025832,-0.00162903,0.00168966,0.00051314,-0.00274183,0.00581364,0.0
 0269840,-0.00281967,0.00751542,-0.00271463,-0.00272021,0.00273275,0.00
 073648,0.00034677,-0.00428523,0.00108280,0.00090477,0.00000484,-0.0010
 6700,-0.00149779,-0.00287691,-0.00067122,-0.00063896,-0.00031113,0.003
 44929,0.01882549,-0.00013235,-0.00210536,-0.00161133,0.00323994,-0.001
 74032,-0.00217442,-0.00334143,-0.35639211,0.63935110,0.00070882,-0.001
 93312,-0.06977346,0.02031307,-0.00187809,-0.00024691,-0.00614572,-0.00
 069807,0.00103367,-0.00640222,0.00273968,-0.00486982,0.00300907,0.0230
 7091,-0.00334188,-0.02340702,-0.00228158,-0.00420119,0.00729708,0.0022
 1647,-0.00412757,0.00706233,-0.00053511,0.00175620,-0.00292136,-0.0076
 0930,-0.00319654,0.00121847,-0.00747212,0.00117898,0.00160872,-0.00022
 658,0.00888410,-0.00217055,0.00219908,0.00542442,0.00020746,-0.0017041
 5,0.00775531,0.01492217,-0.05294210,0.58963036,0.00885965,0.00798906,-
 0.00112522,-0.00335128,0.00374838,-0.00510721,0.00040993,-0.00146056,0
 .00177526,-0.00054692,-0.00151860,0.00565838,0.00099162,-0.00005431,0.
 00089839,0.00071924,0.00032879,0.00035588,0.00008314,-0.00051235,-0.00
 005951,0.00032737,-0.00021061,0.00030806,-0.00035027,-0.00034592,-0.00
 112085,-0.00019034,-0.00020986,0.00017572,-0.00368288,-0.00172280,0.00
 016971,0.00134650,-0.00042536,-0.00126359,0.00044014,0.00093926,-0.001
 75157,-0.15910469,0.16694535,-0.12872329,0.19016541,0.00872566,0.00134
 296,0.00139343,0.00320666,-0.00266578,0.00233491,-0.00069890,0.0007730
 2,-0.00076611,-0.00028811,0.00163240,-0.00382649,-0.00009477,0.0015096
 5,-0.00090590,-0.00137878,0.00039786,-0.00063830,0.00025771,0.00037691
 ,0.00056412,0.00025463,-0.00014825,-0.00023264,-0.00030782,-0.00009522
 ,0.00066301,-0.00016449,0.00014334,-0.00032458,-0.00156974,-0.00215553
 ,-0.00169002,-0.00102698,0.00211183,0.00307687,0.00096013,-0.00070154,
 0.00369660,0.16651664,-0.29112988,0.19866952,-0.24962654,0.38071818,-0
 .01405394,0.02100706,-0.00331486,-0.00709100,0.00116386,0.00060339,0.0
 0225258,0.00004307,-0.00018084,0.00393966,-0.00189091,0.00240089,-0.00
 108639,-0.00719789,-0.00015501,0.00765266,0.00120310,-0.00030725,-0.00
 321893,-0.00133816,0.00138298,-0.00284246,-0.00006977,0.00007488,0.001
 28909,0.00294671,0.00063932,-0.00025548,0.00287033,0.00017671,0.001247
 50,-0.00338950,0.00771414,0.00435288,-0.00508618,-0.01115762,-0.001818
 74,0.00371894,-0.01072747,-0.13135053,0.20202942,-0.30819299,0.1486581
 2,-0.22404009,0.26827448,0.00499006,0.01118248,0.00091255,0.00161883,0
 .00044476,-0.00120310,-0.00024743,-0.00025676,0.00013051,-0.00100163,-
 0.00013617,0.00094513,0.00041774,0.00255128,0.00037671,-0.00368183,-0.
 00372608,0.00250347,0.00157687,0.00047815,-0.00452714,0.00080639,0.001
 06720,-0.00057927,-0.00112745,-0.00146971,-0.00038533,0.00029729,-0.00
 143053,0.00059413,-0.00246275,-0.00210692,-0.00217463,-0.00090708,0.00
 210320,0.00350467,0.00138223,-0.00103557,0.00436699,-0.19744677,0.2017
 1139,0.11333806,-0.03649255,0.07481171,-0.00739085,0.23245396,0.010441
 56,-0.00152716,-0.00082735,-0.00117960,-0.00143674,0.00175386,0.000417
 24,0.00072706,-0.00057026,0.00065561,0.00068773,-0.00200019,-0.0043932
 7,-0.00466399,-0.00120425,0.00325473,0.00139303,-0.00087063,-0.0020145
 4,-0.00116363,0.00184547,-0.00130724,-0.00028980,-0.00035277,0.0016925
 8,0.00265094,0.00481737,0.00063076,0.00150821,-0.00001895,-0.00238055,
 -0.00159797,0.00219634,0.00209731,-0.00173186,-0.00411144,-0.00046878,
 0.00212594,-0.00511197,0.20028123,-0.31429815,-0.14414757,0.07557158,-
 0.08920495,0.00764061,-0.28373567,0.40594198,0.01449760,-0.01817873,-0
 .00150108,-0.00608473,0.00040773,-0.00033941,0.00198884,0.00028866,-0.
 00006588,0.00247178,-0.00077776,0.00078945,-0.00054005,-0.00706053,-0.
 00250216,0.00761880,0.00072001,-0.00107723,-0.00383056,-0.00118082,0.0
 0229461,-0.00293607,-0.00008157,-0.00025909,0.00185203,0.00389947,0.00
 185057,-0.00021581,0.00305380,-0.00006536,-0.00343320,0.00323533,0.005
 43660,0.00346563,-0.00408015,-0.00723134,-0.00133592,0.00306750,-0.011
 10171,0.11765108,-0.15182621,-0.21297933,-0.02004822,0.02527610,0.0522
 6964,-0.11112842,0.14135426,0.17397155,-0.04407738,-0.00008012,0.01017
 435,-0.00193356,-0.00797967,0.00506884,0.00014361,0.00134482,-0.001787
 70,0.00110185,0.00485158,-0.00216687,0.01931797,-0.00045979,-0.0035595
 0,-0.00248514,0.00741733,-0.00296638,-0.00141260,-0.00264862,0.0008416
 6,-0.00067490,-0.00030375,0.00061572,-0.00180621,0.00322169,0.00202768
 ,-0.00245624,-0.00306451,0.00196691,-0.00296411,0.00268356,0.00299356,
 0.00044570,-0.00435905,-0.00057606,0.00097994,-0.00008415,-0.00109176,
 0.00421740,-0.00516554,0.00222740,-0.00241016,0.00556413,-0.00071382,-
 0.00154622,0.00168384,-0.00036424,0.59199548,-0.00231410,-0.07084833,-
 0.00019609,-0.02026824,-0.00142230,-0.00315791,0.00618582,0.00116841,-
 0.00073865,0.00678534,-0.00423453,0.00372566,-0.00040239,0.00883564,-0
 .00090492,0.02343967,-0.00385852,-0.00173242,-0.00787797,-0.00309632,0
 .00274971,-0.00739784,0.00121843,-0.00156440,0.00226428,0.00551843,0.0
 0185325,-0.00142187,0.00761572,-0.00084572,-0.00369053,-0.00288595,0.0
 2313070,0.00255277,-0.00460614,-0.00710319,-0.00010296,0.00152808,-0.0
 0720764,-0.00065982,-0.00125476,-0.02052723,0.00228303,-0.00458821,0.0
 0683012,-0.00103727,0.00130876,0.00607788,-0.03377941,0.59036238,0.010
 07231,-0.00072110,-0.04836085,0.00130627,-0.00283279,0.00487595,-0.000
 22620,0.00060470,-0.00158143,-0.00093871,0.00413249,-0.00291046,-0.003
 56733,-0.00088408,0.02065509,0.00274834,0.00220177,-0.00293686,-0.0012
 2779,-0.00379678,0.00136302,-0.00129195,0.00036261,0.00048555,0.002380
 11,0.00323358,-0.00245406,0.00171068,-0.00203706,-0.00336698,-0.001679
 81,0.00756480,-0.00330541,0.00037038,-0.00124404,-0.00244702,0.0009001
 1,-0.00090724,-0.00017617,0.00267652,-0.00843148,-0.00170914,-0.001220
 03,0.00384161,0.00177076,-0.00099463,0.00159670,-0.00007326,0.37061313
 ,-0.03057932,0.44708950,0.00268266,0.00104177,-0.00915116,-0.00403864,
 0.00339979,-0.00559784,0.00050751,-0.00103540,0.00193003,-0.00045036,-
 0.00556995,0.00301881,-0.00246085,-0.00143994,0.00172415,0.00140767,-0
 .00087696,0.00011907,-0.00014870,0.00056551,0.00029967,0.00014140,-0.0
 0030600,0.00021314,0.00200656,0.00283270,0.00086036,-0.00046612,0.0033
 9108,-0.00115125,0.00045570,-0.00066800,0.00122862,0.00029508,0.000632
 21,-0.00021937,-0.00018937,-0.00016843,-0.00026006,-0.00224310,0.00203
 816,-0.00307883,0.00211753,-0.00319040,0.00099198,0.00062664,-0.000633
 35,0.00072626,-0.26333916,0.18076217,-0.18003950,0.34205307,0.01956324
 ,-0.00301468,0.01613331,0.00675616,0.00167712,0.00096743,-0.00259023,-
 0.00084941,0.00048781,-0.00386122,0.00018542,-0.00121099,-0.00302644,0
 .00763446,-0.00206040,-0.00724307,-0.00006213,0.00077290,0.00305317,0.
 00064066,-0.00117188,0.00281939,0.00016415,0.00032673,-0.00501000,-0.0
 1116009,-0.00404513,0.00336323,-0.01056263,0.00254823,0.00157428,-0.00
 063473,-0.00749047,-0.00142143,0.00149247,0.00305911,-0.00019541,0.000
 14229,0.00287675,0.00070979,0.00098422,0.00696549,-0.00111531,0.000987
 30,-0.00387062,0.00017795,-0.00029126,-0.00222841,0.18407901,-0.300253
 62,0.15228569,-0.20299936,0.25967910,-0.00939549,0.00188370,0.00700939
 ,-0.00265775,0.00122573,-0.00287533,0.00072487,-0.00021910,0.00075626,
 0.00084800,-0.00229346,0.00115068,0.00195134,-0.00084134,-0.00336200,0
 .00045061,-0.00092793,0.00098393,0.00015672,0.00109459,-0.00026667,0.0
 0007518,-0.00021419,-0.00017337,0.00074406,0.00206215,0.00157008,-0.00
 113799,0.00252998,0.00010435,-0.00039722,-0.00032888,0.00117392,0.0005
 9135,-0.00001261,-0.00007266,0.00017649,-0.00031982,0.00017366,-0.0035
 9358,0.00515853,-0.00427378,0.00216009,-0.00595620,-0.00036232,0.00140
 822,-0.00180595,0.00073325,-0.18083914,0.14955777,-0.19515266,0.267003
 07,-0.16861019,0.24033608,-0.00047118,-0.00135076,-0.01103904,0.001430
 57,0.00145065,-0.00156737,-0.00017391,-0.00014735,0.00057612,-0.000273
 18,-0.00173345,0.00077257,-0.00179696,0.00226020,0.00235948,-0.0047654
 5,-0.00119130,0.00448200,0.00254225,0.00456864,-0.00152216,0.00144203,
 0.00003317,-0.00066302,-0.00159802,-0.00403694,-0.00198648,0.00198367,
 -0.00498325,0.00074853,0.00129417,-0.00104714,-0.00293128,-0.00111201,
 0.00168074,0.00185261,-0.00033680,-0.00031449,0.00129171,-0.00146837,0
 .00179717,0.00093635,0.00066856,-0.00195074,-0.00056233,0.00074371,-0.
 00061343,-0.00035481,-0.29309627,-0.14532070,-0.20159189,-0.07895751,0
 .00536628,-0.07826883,0.37394471,-0.01777710,-0.00184294,-0.01513653,0
 .00605461,-0.00013184,0.00063514,-0.00199244,-0.00011898,0.00029504,-0
 .00215610,0.00067686,-0.00084608,0.00325008,0.00552074,0.00321237,-0.0
 0733890,-0.00243728,0.00019243,0.00388997,0.00140671,-0.00168984,0.003
 03586,-0.00010205,0.00031498,-0.00405880,-0.00737792,-0.00336051,0.002
 80637,-0.01116758,0.00208434,0.00140634,-0.00148209,-0.00761457,-0.001
 46364,0.00267305,0.00390755,-0.00032653,-0.00010240,0.00295126,0.00003
 116,-0.00008125,0.00609386,-0.00060322,0.00069591,-0.00257010,0.000406
 58,-0.00013814,-0.00196655,-0.15292134,-0.22050715,-0.12439007,0.02222
 441,0.05324137,0.01801720,0.14553269,0.18127499,-0.01059020,-0.0004920
 6,0.00452507,0.00093268,0.00101258,-0.00168198,-0.00036958,-0.00027909
 ,0.00076960,-0.00006371,-0.00157519,0.00085675,0.00204677,0.00186082,-
 0.00246062,-0.00233451,-0.00051887,0.00036296,0.00155475,0.00057705,-0
 .00119340,0.00131921,-0.00060141,0.00035303,-0.00200326,-0.00337259,-0
 .00081566,0.00085489,-0.00406557,0.00158418,0.00385292,-0.00285213,-0.
 00323073,-0.00041117,0.00480032,0.00186532,-0.00111371,0.00065130,0.00
 065538,-0.00062476,0.00140684,0.00124959,0.00025988,-0.00113583,-0.000
 90885,0.00030292,-0.00018328,-0.00014981,-0.20246380,-0.11936760,-0.21
 176556,-0.07861716,0.00426464,-0.04745282,0.28746783,0.11987008,0.2574
 3755\\0.00016930,-0.00010809,-0.00011429,0.00003433,0.00009762,-0.0000
 0212,-0.00004326,-0.00010291,0.00005487,0.00013783,-0.00013449,0.00012
 615,0.00012923,0.00003812,0.00009162,-0.00015321,0.00008798,-0.0001452
 1,0.00006511,0.00000781,0.00002680,-0.00024128,0.00001715,-0.00003792,
 0.00007856,0.00003332,0.00006403,0.00007044,-0.00003765,-0.00023150,-0
 .00002637,0.00003071,-0.00009087,-0.00001700,0.00020439,-0.00001136,0.
 00009374,0.00002119,0.00027111,0.00003191,-0.00006575,0.00012692,-0.00
 007515,-0.00004779,-0.00012773,-0.00009287,-0.00006861,-0.00001049,0.0
 0003012,-0.00001001,0.00002614,-0.00013463,0.00009658,0.00004662,-0.00
 005681,-0.00005956,-0.00006278\\\@


 EDUCATION DOESN'T COST 
           ... IT PAYS!

 -- POSTMARK, UNIV. OF MISSISSIPPI, DEC 78
 Job cpu time:  0 days  4 hours 28 minutes 50.5 seconds.
 File lengths (MBytes):  RWF=    293 Int=      0 D2E=      0 Chk=     11 Scr=      1
 Normal termination of Gaussian 09 at Wed Dec  1 12:00:48 2021.
